LAMMPS data file via write_data, version 23 Jun 2022, timestep = 100000

10500 atoms
4 atom types
10000 bonds
4 bond types
18500 angles
7 angle types
21000 dihedrals
5 dihedral types
12000 impropers
5 improper types

0 61.9676402808313 xlo xhi
0 61.9676402808313 ylo yhi
0 30.9838201404157 zlo zhi

Masses

1 12.01115
2 12.01115
3 15.9994
4 1.00797

Pair Coeffs # lj/class2/coul/long/gpu

1 0.062 3.854
2 0.0498 3.67
3 0.12 3.3
4 0.023 2.878

Bond Coeffs # class2

1 1.53 299.67 -501.77 679.81
2 1.101 345 -691.89 844.6
3 1.42 400.395 -835.195 1313.01
4 1.101 345 -691.89 844.6

Angle Coeffs # class2

1 110.77 41.453 -10.604 5.129
2 107.66 39.641 -12.921 -2.4318
3 112.67 39.516 -7.443 -9.5583
4 111.27 54.5381 -8.3642 -13.0838
5 110.77 41.453 -10.604 5.129
6 108.728 58.5446 -10.8088 -12.4006
7 104.5 35.7454 -10.0067 -6.2729

BondBond Coeffs

1 3.3872 1.53 1.101
2 5.3316 1.101 1.101
3 0 1.53 1.53
4 11.4318 1.53 1.42
5 3.3872 1.53 1.101
6 23.1979 1.42 1.101
7 -7.1131 1.42 1.42

BondAngle Coeffs

1 20.754 11.421 1.53 1.101
2 18.103 18.103 1.101 1.101
3 8.016 8.016 1.53 1.53
4 2.6868 20.4033 1.53 1.42
5 20.754 11.421 1.53 1.101
6 55.327 4.6189 1.42 1.101
7 -2.8112 -2.8112 1.42 1.42

Dihedral Coeffs # class2

1 0 0 0.0316 0 -0.1681 0
2 -0.1435 0 0.253 0 -0.0905 0
3 -0.1432 0 0.0617 0 -0.153 0
4 -0.4 0 -0.4028 0 -0.245 0
5 0.5302 0 0 0 -0.3966 0

AngleAngleTorsion Coeffs

1 -16.164 110.77 112.67
2 -20.2006 110.77 111.27
3 -12.564 110.77 110.77
4 -19.0059 111.27 104.5
5 -16.4438 108.728 104.5

EndBondTorsion Coeffs

1 0.0814 0.0591 0.2219 0.2486 0.2422 -0.0925 1.101 1.53
2 0.9681 0.9551 0.0436 0.5903 0.6669 0.8584 1.101 1.42
3 0.213 0.312 0.0777 0.213 0.312 0.0777 1.101 1.101
4 -0.2456 1.0517 -0.7795 0.4741 1.2635 0.5576 1.53 1.42
5 -0.6054 1.3339 0.9648 -0.162 0.1564 -1.1408 1.101 1.42

MiddleBondTorsion Coeffs

1 -14.879 -3.6581 -0.3138 1.53
2 -16.7975 -1.2296 -0.275 1.53
3 -14.261 -0.5322 -0.4864 1.53
4 -5.9288 -2.7007 -0.3175 1.42
5 -6.8007 -4.6546 -1.4101 1.42

BondBond13 Coeffs

1 0 1.101 1.53
2 0 1.101 1.42
3 0 1.101 1.101
4 0 1.53 1.42
5 0 1.101 1.42

AngleTorsion Coeffs

1 0.3113 0.4516 -0.1988 -0.2454 0 -0.1136 110.77 112.67
2 2.3668 2.492 -1.0122 -0.1892 0.4918 0.7273 110.77 111.27
3 -0.8085 0.5569 -0.2466 -0.8085 0.5569 -0.2466 110.77 110.77
4 -2.7466 1.4877 -0.8955 0.5676 0.945 0.0703 111.27 104.5
5 -1.8234 1.6393 0.5144 -0.7777 0.434 -0.6653 108.728 104.5

Improper Coeffs # class2

1 0 0
2 0 0
3 0 0
4 0 0
5 0 0

AngleAngle Coeffs

1 0.2738 -0.4825 0.2738 110.77 107.66 110.77
2 -0.3157 -0.3157 -0.3157 107.66 107.66 107.66
3 -0.833 -0.833 -3.5744 112.67 111.27 111.27
4 -1.3199 -1.3199 0.1184 112.67 110.77 110.77
5 0.1689 2.5926 3.9177 111.27 108.728 110.77

Atoms # full

8416 401 4 0.053 5.00884795266363 4.649774634928086 2.1611436146315093 0 0 1
8418 401 4 0.053 5.145895180095714 2.8247347070180284 2.3846762468075475 0 0 1
8406 401 1 -0.159 5.04265860289 3.640102989014517 1.6432725114600983 0 0 1
8405 401 2 0.107 3.7954166838884076 3.4550344478702883 0.7920345879596795 0 0 1
8420 401 4 0.053 2.3364033757909843 2.7785627411607474 2.275806084107166 0 0 1
2119 101 4 0.053 4.152676179170319 2.1164060425761475 4.5567576438627775 0 0 0
2120 101 4 0.053 5.281358841828899 3.443164702128691 5.024993632205906 0 0 0
2121 101 4 0.053 3.473316930964568 3.682734568802395 4.823737666058404 0 0 0
2107 101 1 -0.159 4.306336648398422 3.009650331607407 5.191103656011825 0 0 0
2105 101 2 0.107 4.25245068437356 2.6869379321518454 6.739244314579821 0 0 0
6109 291 4 0.053 2.541022267479987 1.2701319376147053 17.449924167263045 0 1 0
1 1 1 -0.159 0.5715347741027974 2.035114592245227 5.299717890515293 0 0 0
230 11 4 0.053 6.492611188236346 7.32918251787348 5.234120671172301 0 0 0
8407 401 1 -0.159 2.471461379049899 3.6315066405868532 1.5474137537940746 0 0 1
10 1 4 0.053 1.1130895228664748 2.1614450607885094 6.25750991566464 0 0 0
8417 401 4 0.053 5.926762722849974 3.6068969463463114 0.8975594374316322 0 0 1
2104 101 3 -0.32 5.216822849292749 1.6194225565621623 6.917541190890747 0 0 0
8421 401 4 0.053 1.6729836125217863 3.5682329086931057 0.8461678423449439 0 0 1
8415 401 4 0.053 3.827651497865189 2.4912397999982057 0.28508420848114624 0 0 1
8404 401 3 -0.32 3.951697502771744 4.356103050278452 30.658682788922036 0 0 0
8419 401 4 0.053 2.3369988788928833 4.572885125887009 2.068534600697697 0 0 1
217 11 1 -0.159 5.956649225425903 7.289396077484292 4.3244185226940175 0 0 0
9293 443 4 0.053 23.770083233187187 30.24070634763104 28.553885785644365 0 0 0
214 11 3 -0.32 3.614331729939245 7.473767598898202 4.014607147914405 0 0 0
222 11 4 0.053 1.4606958397137295 6.8061238497594845 4.4124144081660965 0 0 0
226 11 4 0.053 4.489805792484715 8.576187948063172 6.443760035488731 0 0 0
2309 110 4 0.053 3.2240062186059233 6.540172470362287 9.641820649935537 1 0 0
220 11 4 0.053 2.7192981289620843 6.761793232572278 1.497540305231901 0 0 0
2116 101 4 0.053 3.7911747991891516 3.9042733541014667 8.47926600138496 0 0 0
632 31 2 0.107 0.05846438117572263 16.76287703858102 2.537490708305739 0 0 0
215 11 2 0.107 4.750532377554946 8.221834777856028 4.310263930709103 0 0 0
2111 101 4 0.053 3.6684304669131658 0.1600740424487421 6.754193486426654 0 0 0
2308 110 4 0.053 2.453308282781491 5.104116421853755 8.674521918960798 1 0 0
2102 101 2 0.107 4.726161903029862 0.27926600822258796 7.080785578204207 0 0 0
2310 110 4 0.053 2.076203652816603 6.850956223499615 8.284132294898825 1 0 0
2296 110 1 -0.159 2.3175576180938267 6.158178520495871 9.11237042949589 1 0 0
9128 435 4 0.053 29.910179991334026 16.909216306063144 24.76749861663601 0 0 0
231 11 4 0.053 6.744188444817875 7.408546131547883 3.490256377544334 0 0 0
8441 402 4 0.053 8.866201836101679 5.702663210757651 2.433247062047856 0 0 1
229 11 4 0.053 5.571648053107106 6.247493799193979 4.270257838091109 0 0 0
223 11 4 0.053 0.5452119141909271 7.212622501216971 3.033690152932168 0 0 0
224 11 4 0.053 0.7823531646907084 8.501530555151927 4.200467439766517 0 0 0
213 11 1 -0.159 1.286173439813271 7.667408386564746 3.742894771894211 0 0 0
212 11 2 0.107 2.6552782682550435 8.089646443659875 3.2639592646675677 0 0 0
2139 102 4 0.053 7.233890257858633 2.1600116655591206 10.285943682368364 0 0 0
2115 101 4 0.053 3.200145759034996 2.2848731161742437 6.971859801531403 0 0 0
1955 94 2 0.107 17.361973310058094 0.37053722223613816 30.4412132133294 0 1 -1
2315 111 2 0.107 0.28943152800223754 9.974261205449729 7.990688920404656 0 0 0
3141 150 4 0.053 1.2062346299984572 27.270678146522187 5.696650958537958 1 0 0
8436 402 4 0.053 7.9557901840318115 3.7371381557169165 0.7273187175511532 0 0 1
8438 402 4 0.053 9.526068139201755 2.0517617126625636 2.7204281056393045 0 0 1
34 2 4 0.053 11.153069133204957 2.445332520659844 4.566923630470429 0 0 0
8432 402 4 0.053 9.197127006438118 5.5540448535830516 0.11036980511913887 0 0 1
8442 402 4 0.053 9.392626604771074 4.416976320548129 3.4270268362829057 0 0 1
8440 402 4 0.053 7.605996720593541 4.71017606405786 3.2388916777325334 0 0 1
8428 402 1 -0.159 8.611480616192502 4.652740465222954 2.7449590772866386 0 0 1
8426 402 2 0.107 8.725968536507201 3.681167406489065 1.5599582419394524 0 0 1
8427 402 1 -0.159 8.700966837148352 2.1875256861804635 2.014456546175886 0 0 1
8425 402 3 -0.32 10.014318833962013 3.9007812954451215 0.9651959011563578 0 0 1
8439 402 4 0.053 8.938083011663197 1.604823454429677 1.1900823528385975 0 0 1
8662 413 4 0.053 15.33165566099609 7.240113671803446 1.8420062063763623 0 0 1
8654 413 2 0.107 15.807880021159818 5.10304787994414 1.7345464973848215 0 0 1
8656 413 3 -0.32 15.121688088904728 5.056734325954044 0.48005833201140835 0 0 1
8655 413 1 -0.159 14.89377622016042 4.361052566348834 2.611910753745832 0 0 1
8665 413 4 0.053 14.688141562408248 3.4192383795110683 2.1797967136095373 0 0 1
8664 413 4 0.053 15.180876335722248 4.199201008700478 3.675557225135789 0 0 1
26 2 2 0.107 11.372594071382963 2.570374249222407 8.283717648256602 0 0 0
25 2 3 -0.32 10.691168429198246 2.769656705104466 6.976735031032086 0 0 0
23 2 2 0.107 10.320430833992797 1.5606445982885089 6.29893418252079 0 0 0
27 2 1 -0.159 12.75559426750655 1.8636990334323498 8.174142108188661 0 0 0
38 2 4 0.053 13.290767921699409 1.7940620459978405 9.103934926680461 0 0 0
24 2 1 -0.159 11.242911575137201 1.467366465396692 5.009868076171952 0 0 0
37 2 4 0.053 12.703439364719424 0.8228346380579672 7.780066271899886 0 0 0
39 2 4 0.053 13.349961859896034 2.385480345732987 7.460425191066285 0 0 0
8666 413 4 0.053 13.937237937386163 4.968060095489926 2.630552315320052 0 0 1
8437 402 4 0.053 7.682412112207857 1.8471328069718842 2.4433463977456165 0 0 1
51 3 4 0.053 16.40927923829538 4.216333784088207 7.367352733120366 0 0 0
8653 413 1 -0.159 16.10796476727464 6.593554858116335 2.1173372513872333 0 0 1
240 12 4 0.053 9.870867474161447 6.519478003383353 6.872888667580415 0 0 0
31 2 4 0.053 8.739758935280548 2.6086623013573442 5.3249409889171275 0 0 0
239 12 4 0.053 8.803388709558991 6.9561180693009295 8.185194271940594 0 0 0
232 12 1 -0.159 9.607761422709501 7.3359177702359455 7.556921115732797 0 0 0
32 2 4 0.053 10.46773368531599 0.6503172565121652 6.8802122736741715 0 0 0
22 2 1 -0.159 8.875889865582737 1.6588812059422489 5.925726663237791 0 0 0
30 2 4 0.053 8.390392357898333 0.8207812289920229 5.338988107833636 0 0 0
241 12 4 0.053 9.157175489989381 8.1040712849994 6.951505496395114 0 0 0
8833 421 4 0.053 9.377245261710886 7.834697217309642 0.4648310007762104 0 0 1
29 2 4 0.053 8.320808243862043 1.7536139504049728 6.855474127672898 0 0 0
8429 402 4 0.053 11.537039901902356 5.849071412054491 1.2224456263147734 0 0 1
8657 413 2 0.107 15.599834244254136 5.599818369796235 30.238511059997222 0 0 0
8834 421 4 0.053 9.862334821382845 8.678015259493844 29.960623779182775 0 0 0
33 2 4 0.053 12.333023575592328 1.2960894192400312 5.282681242503517 0 0 0
35 2 4 0.053 10.890756750011642 0.6949493948342594 4.294131965947939 0 0 0
8660 413 4 0.053 17.059345034234447 6.977275779751577 1.6543584534946605 0 0 1
8661 413 4 0.053 16.368491578514234 6.714747604524965 3.1835875006020506 0 0 1
1966 94 4 0.053 15.598629591705976 1.2416460172210486 0.7502371052423253 0 1 0
8663 413 4 0.053 16.745331283342804 4.559345594601786 1.5373733332640558 0 0 1
1967 94 4 0.053 17.135282527354736 1.946297636971657 1.0234563094281088 0 1 0
278 14 2 0.107 19.820219525321527 4.01342667414752 1.9564546665507208 0 0 0
279 14 1 -0.159 19.98497789072356 3.8290150527824838 0.42564952384049376 0 0 0
294 14 4 0.053 20.401027061944976 1.932119590439399 2.5410670584541086 0 0 0
280 14 1 -0.159 20.57494778239106 2.9934149229350204 2.809702735951693 0 0 0
293 14 4 0.053 21.63623663178734 3.1669008366937406 2.5927645691617904 0 0 0
292 14 4 0.053 20.4205269744829 3.1262496569831923 3.9009610033072186 0 0 0
288 14 4 0.053 18.806647525205257 3.8515168157341773 2.3639455422058013 0 0 0
73 4 4 0.053 18.96944987525263 3.5501162575602683 5.833186485016867 0 0 0
283 14 4 0.053 21.06278974643798 4.87345715086695 4.594163062286677 0 0 0
65 4 2 0.107 20.419222743509618 3.2091739081408908 7.174085640816562 0 0 0
74 4 4 0.053 21.10204792468441 3.4776860604219575 6.3255746793084215 0 0 0
277 14 3 -0.32 20.265552265857767 5.334430150660433 2.1310030657974517 0 0 0
275 14 2 0.107 19.90404552906435 6.11854857105379 3.2933156902072245 0 0 0
284 14 4 0.053 18.85094571112213 5.870337901683176 3.6081256331825093 0 0 0
289 14 4 0.053 19.269311930136276 4.616933741744143 0.006074241523620572 0 0 0
274 14 1 -0.159 20.89067610923702 5.9570944817643685 4.4193699270967235 0 0 0
281 14 4 0.053 20.593574689983473 6.535453218479323 5.309794431891362 0 0 0
282 14 4 0.053 21.890221426640633 6.4550507483191675 4.123090000625103 0 0 0
291 14 4 0.053 21.04905249326211 3.970215477118358 0.04932682807281658 0 0 0
8682 414 4 0.053 21.91255949169222 6.683321703056437 0.6381042459821689 0 0 1
290 14 4 0.053 19.64732567466871 2.8750951852538043 0.019175428900762514 0 0 0
287 14 4 0.053 19.090815828498926 7.5662621368066345 2.010768553495899 0 0 0
64 4 1 -0.159 19.14670637365812 2.7547284226713713 6.511582686734501 0 0 0
80 4 4 0.053 23.282749431885225 3.1520592604945143 6.962529881367381 0 0 0
1956 94 1 -0.159 16.658000909855268 0.9247708780662418 0.7883084649631532 0 1 0
68 4 2 0.107 22.00549853498876 1.409722973878939 7.396398038166126 0 0 0
276 14 1 -0.159 19.849172495562154 7.614077282445946 2.8217429832375047 0 0 0
43 3 1 -0.159 16.233235072220996 5.156086766543862 7.9486468658178175 0 0 0
50 3 4 0.053 15.697361370776063 5.767149230231892 7.167798649063136 0 0 0
52 3 4 0.053 17.17789757955892 5.629447039602928 8.071567958658093 0 0 0
76 4 4 0.053 19.976664882512985 5.35286111780006 7.3098026245610095 0 0 0
66 4 1 -0.159 20.265221899656854 4.522585907818408 8.02885333462589 0 0 0
71 4 4 0.053 18.291858534965463 2.5787658956118453 7.277825586616901 0 0 0
9013 430 3 -0.32 0.20083899497059451 10.412595872741583 0.31664938821449934 1 0 1
81 4 4 0.053 24.119155307630393 1.5439924438453116 6.873536205084335 0 0 0
98 5 4 0.053 22.780014865952324 1.7330311389594575 0.4713212339317557 0 0 0
8669 413 4 0.053 16.21737501553215 3.6367058535900694 29.93815661235102 0 0 0
8667 413 4 0.053 16.649738519625206 5.954463731184927 30.28259345923278 0 0 0
88 5 3 -0.32 24.140256623686508 1.6981874545300448 2.616945812236452 0 0 0
105 5 4 0.053 23.878631227135543 3.9299411243605307 4.1356998873698885 0 0 0
1100 53 4 0.053 17.84011789385742 30.747162592033696 4.8230214306314085 0 0 0
102 5 4 0.053 25.32654550869234 4.58150663185829 1.414506561207927 0 0 0
91 5 1 -0.159 24.856269323984595 3.563844824147249 3.9086408028684665 0 0 0
6399 305 4 0.053 30.826688440700934 13.074404211793986 16.322447199190307 0 0 0
90 5 1 -0.159 24.60345990773719 3.7188381075463344 1.3858872460348255 0 0 0
104 5 4 0.053 25.155927796055636 2.875781354092083 4.743342780063105 0 0 0
89 5 2 0.107 24.939582634638672 2.843943946152485 2.622980685755757 0 0 0
103 5 4 0.053 25.68010612460775 4.287215922248992 3.9399518301865837 0 0 0
99 5 4 0.053 26.039184340981617 2.57148662660644 2.581071448261043 0 0 0
108 6 1 -0.159 29.115066779794923 2.8412967314230895 2.7705403845631333 0 0 0
117 6 4 0.053 28.656322203847065 3.3333440715908322 1.901598521232258 0 0 0
2203 105 4 0.053 29.016676242175727 6.902572063668493 8.104929864385264 0 0 0
2204 105 4 0.053 27.291764241239246 6.864154261067445 8.529002123050532 0 0 0
2191 105 1 -0.159 28.145725563678415 6.256568370947699 8.168824071153038 0 0 0
118 6 4 0.053 28.678239291225292 3.244594054343885 3.722328043423416 0 0 0
2205 105 4 0.053 27.87492872253365 5.833077550624707 7.1951047251938585 0 0 0
1992 95 4 0.053 27.116067317718436 0.5741361464600551 5.786307579923192 0 1 0
5053 241 4 0.053 6.18603258153193 30.91640102456049 20.09440941229926 0 0 0
333 16 4 0.053 30.766632611428854 9.163769817748296 28.120376826482246 0 0 -1
119 6 4 0.053 28.81764754296686 1.7484877212799625 2.6500665373677648 0 0 0
332 16 4 0.053 29.84295451801721 9.671342056523965 26.628481873555153 0 0 -1
2200 105 4 0.053 29.612755477682587 3.903751624463135 8.142320154739073 0 0 0
2190 105 1 -0.159 29.79913327321175 4.589955699927963 8.971712244730396 0 0 0
87 5 1 -0.159 23.06045679220398 0.7250318746047869 0.7651448450318994 0 0 0
2213 106 4 0.053 30.64791746783738 5.899620683179057 14.426131609737828 0 0 0
325 16 4 0.053 28.400868695808864 4.362646352523521 30.269708959512226 0 0 -1
9019 430 4 0.053 1.2319526573000958 9.184271033824238 28.444737760359907 1 0 0
100 5 4 0.053 23.520348891678005 4.111805362200875 1.3859390351082865 0 0 0
6096 291 1 -0.159 5.166512648236494 1.2525373427178503 16.594472027527946 0 1 0
3183 152 4 0.053 14.899110963859046 30.021270787584225 2.575845258843664 0 0 0
649 31 4 0.053 0.6555034382461618 19.79897665128767 6.0792759818048445 0 0 0
7023 335 4 0.053 28.841617294238688 30.110690567264502 21.151500073776628 0 0 0
101 5 4 0.053 24.86188303466653 3.1866979408200744 0.3935641520502368 0 0 0
9301 443 4 0.053 19.565074010781824 30.861267715455597 26.564789200117907 0 0 0
216 11 1 -0.159 4.618892168026867 9.113632940407506 5.502028434551134 0 0 0
228 11 4 0.053 5.5437999855636635 9.711818729602385 5.559638394065119 0 0 0
227 11 4 0.053 3.7353538522624157 9.687380100872575 5.38372281950159 0 0 0
9028 430 4 0.053 1.7301099407707061 11.067554580954653 2.1424545854056465 1 0 1
221 11 4 0.053 2.7333094303683056 9.2349074071868 3.249068684696274 0 0 0
211 11 1 -0.159 2.9647904692886375 7.793005993724781 1.8116147446017745 0 0 0
225 11 4 0.053 4.885679829713855 8.895143900729718 3.4498524324553332 0 0 0
424 21 3 -0.32 3.909655388010715 13.451386639126707 2.265699574374162 0 0 0
425 21 2 0.107 4.261800576711871 13.687432428961657 3.5982534047844323 0 0 0
427 21 1 -0.159 4.769705315960017 12.33309569167237 4.187170305134503 0 0 0
441 21 4 0.053 4.145774138025491 11.566671524875758 3.7210242051361915 0 0 0
439 21 4 0.053 4.603712630995719 12.150840732542447 5.294012355780825 0 0 0
431 21 4 0.053 5.699247466004291 14.316821595341038 1.444442172179416 0 0 0
422 21 2 0.107 4.558898431022584 14.23569466611318 1.3266738521507637 0 0 0
426 21 1 -0.159 3.030186119004169 14.242511020376423 4.254403010248156 0 0 0
435 21 4 0.053 5.02524816408698 14.567074952637833 3.7035347744344627 0 0 0
437 21 4 0.053 2.3417424216133544 13.483264621431868 4.815450595098183 0 0 0
436 21 4 0.053 3.281401220885692 15.10634636051123 4.939096996435952 0 0 0
440 21 4 0.053 5.776829511535768 12.103264079517496 3.869298890339904 0 0 0
438 21 4 0.053 2.2875526467660348 14.737083452183947 3.494499275942557 0 0 0
218 11 4 0.053 4.078213453144253 7.9357939011613965 1.5291992152935863 0 0 0
219 11 4 0.053 2.3362448816310133 8.46309266628825 1.1544030483034449 0 0 0
434 21 4 0.053 4.253292798481484 16.21460242565433 2.132380672923526 0 0 0
2330 111 4 0.053 1.0810077643583649 10.832533681794555 6.085289069295971 0 0 0
2317 111 1 -0.159 0.2285009803545363 10.919845580711412 6.811287774609525 0 0 0
475 23 4 0.053 5.338806666384588 16.585215705504087 5.135181102198458 0 0 0
4283 204 4 0.053 24.594302469125868 0.563149254734476 13.988639486542082 0 0 0
5051 241 4 0.053 5.924482468036549 30.809270539943704 17.776528740521925 0 0 0
2325 111 4 0.053 0.5459918488790163 8.94628680766609 7.717358145878287 0 0 0
2321 111 4 0.053 2.621124876232313 9.16169201499868 8.466231461169725 0 0 0
455 22 4 0.053 7.676141481465282 13.557027947690981 9.187144691741105 0 0 0
9030 430 4 0.053 1.1090379756085862 12.588654685492834 2.5684806594430456 1 0 1
9011 430 2 0.107 0.3169627130997867 10.554995096144728 29.873039497017775 1 0 0
10292 491 2 0.107 7.442479565525655 0.030605196431432523 26.460855887053956 0 1 0
8831 421 4 0.053 8.038236251508943 9.908549664999535 1.1045654313609663 0 0 1
6097 291 1 -0.159 3.243798877781724 0.7770587748897034 18.13091073180238 0 1 0
9016 430 1 -0.159 0.7687867251083128 11.61546368921742 2.337119955657243 1 0 1
8835 421 4 0.053 9.246831259359297 8.455297418110945 2.4129144200002184 0 0 1
8839 421 4 0.053 8.643530481291826 11.064433080409968 3.0709354258515487 0 0 1
8840 421 4 0.053 10.06358459639995 10.938580431354401 4.141277424751863 0 0 1
8827 421 1 -0.159 9.299916829410162 10.348833359836027 3.599061296597106 0 0 1
8841 421 4 0.053 8.702085010535686 9.824224874279047 4.374200680165736 0 0 1
8825 421 2 0.107 9.97645499263275 9.303256444298576 2.647828841791068 0 0 1
8836 421 4 0.053 11.64798078072464 8.202205731285103 2.229250480283792 0 0 1
8837 421 4 0.053 11.267891884833558 8.259000985696447 3.9650251392928544 0 0 1
8826 421 1 -0.159 11.305310721161492 8.794723802369909 3.0453339223041875 0 0 1
8838 421 4 0.053 11.974774611812576 9.652006994906186 3.0993237912895837 0 0 1
446 22 2 0.107 10.010395165582036 15.180474810014228 6.087370962339992 0 0 0
677 33 2 0.107 14.570654148716578 13.344489946151647 1.3261925248459296 0 0 0
687 33 4 0.053 14.811241187636773 12.7213895136691 2.204992839703325 0 0 0
448 22 1 -0.159 9.729285813928753 14.900808871255517 4.61048296462251 0 0 0
683 33 4 0.053 13.175497823357679 11.481211962407492 1.1836842275055741 0 0 0
462 22 4 0.053 10.550578303551447 14.504111197591262 4.017747007739898 0 0 0
461 22 4 0.053 8.897439531965562 14.18592214977939 4.35133910286046 0 0 0
675 33 1 -0.159 14.79518612653597 10.178996620050627 1.0997457313611338 0 0 0
8824 421 3 -0.32 10.104547117329847 10.021178520643078 1.3436908365214781 0 0 1
684 33 4 0.053 15.626296762650952 10.647505363508659 1.63576753618263 0 0 0
686 33 4 0.053 14.061787414025455 9.739193868620685 1.7659602486929795 0 0 0
456 22 4 0.053 9.423441837836977 16.077477839322228 6.465606999113046 0 0 0
452 22 4 0.053 8.074045844649744 13.991860404797087 6.879504760559428 0 0 0
445 22 3 -0.32 10.044050251163165 14.012142605184062 6.9046926376712126 0 0 0
447 22 1 -0.159 11.436435755820838 15.7157152557845 6.353409308711394 0 0 0
458 22 4 0.053 12.0563130205384 14.764870872856823 6.218395708644891 0 0 0
692 33 4 0.053 13.208404958706296 14.49236374096163 2.7018030172835332 0 0 0
273 13 4 0.053 15.696802352751664 15.00066183783854 7.4966147174789635 0 0 0
450 22 4 0.053 8.6149834962139 12.040702319998507 5.664826215970663 0 0 0
451 22 4 0.053 7.683875667057797 11.485882966820705 7.15602786203602 0 0 0
442 22 1 -0.159 8.58854749048301 12.042991997679694 6.762968515743944 0 0 0
443 22 2 0.107 8.8180880262444 13.446535314376435 7.362770070290547 0 0 0
676 33 3 -0.32 14.605925112831429 12.489901454082116 0.12449266122535152 0 0 0
674 33 2 0.107 13.922951896587676 11.260989180533622 0.4294140361206814 0 0 0
679 33 1 -0.159 13.1870953975806 14.005422545332292 1.633925209964732 0 0 0
693 33 4 0.053 12.312525379400489 13.342132252242735 1.6391537854040725 0 0 0
272 13 4 0.053 15.473865444662977 14.297595641529515 5.804215636593099 0 0 0
259 13 1 -0.159 15.344613243465718 14.117789116095107 6.894578778265427 0 0 0
271 13 4 0.053 14.242417342725396 13.871313623358375 6.982641814682693 0 0 0
257 13 2 0.107 16.303069712286966 12.95480535705103 7.231799275243948 0 0 0
266 13 4 0.053 16.57664174008947 10.771369605396654 4.255556109987159 0 0 0
256 13 3 -0.32 15.91797590093446 11.993544446050505 6.22908277492982 0 0 0
264 13 4 0.053 15.323784584305924 9.537248963904203 4.845747773982993 0 0 0
269 13 4 0.053 17.948471383429503 13.4472238274977 5.918247194565978 0 0 0
460 22 4 0.053 9.322858241856355 15.864909612778568 4.113937821726656 0 0 0
245 12 4 0.053 12.255167172758956 7.13514269640774 6.9210499067962425 0 0 0
234 12 1 -0.159 11.938862368299583 8.083993090827814 7.413485089495195 0 0 0
243 12 4 0.053 12.81471670335929 8.648260936725343 7.790698719413672 0 0 0
244 12 4 0.053 11.680152922638095 8.776874726470481 6.565021137624218 0 0 0
453 22 4 0.053 9.035232202631876 14.788581929401655 8.878910865479273 0 0 0
444 22 1 -0.159 8.732407519951186 13.7133869731988 8.857287532541301 0 0 0
685 33 4 0.053 15.272340609715899 9.455108164518258 0.5282843079731451 0 0 0
691 33 4 0.053 13.141557746008518 14.662934539456636 0.7771866550194404 0 0 0
8823 421 1 -0.159 9.105223659793264 8.568578843844215 30.74648401117377 0 0 0
8822 421 2 0.107 8.924685964771353 9.869901365299608 0.4640833607701778 0 0 1
678 33 1 -0.159 15.63071771711408 14.346841676725417 1.080101765278596 0 0 0
262 13 4 0.053 16.29420667047469 10.316688364149126 8.502750827320643 0 0 0
261 13 4 0.053 14.823932783054602 10.07527951628056 7.496452494823153 0 0 0
253 13 1 -0.159 15.959923039295354 10.001089485829588 7.559933672074292 0 0 0
285 14 4 0.053 20.834746732188947 7.78216676289759 2.3445557370989043 0 0 0
286 14 4 0.053 19.501051583057563 8.299911798491367 3.6253211635804012 0 0 0
690 33 4 0.053 15.537658122497094 15.19136046876952 1.812353998394893 0 0 0
689 33 4 0.053 16.603757531170448 13.898085608412103 1.1943119627350083 0 0 0
688 33 4 0.053 15.428448326210317 14.771391237741595 0.12289751548665137 0 0 0
267 13 4 0.053 16.142470300465202 12.44997213606193 8.250344304104798 0 0 0
263 13 4 0.053 17.5739451277347 10.84494303988681 6.496703158403081 0 0 0
254 13 2 0.107 16.451846436394593 10.71330482456056 6.36145176498811 0 0 0
258 13 1 -0.159 17.671362605008074 13.475797705982254 6.995033656174926 0 0 0
8887 424 3 -0.32 20.373548205107987 13.084899090323772 1.2535525552102809 0 0 1
2585 124 2 0.107 23.38166701135621 10.026628474503207 7.688710846500136 0 0 0
2594 124 4 0.053 22.425943248929535 9.492158560580258 7.487431851324045 0 0 0
2586 124 1 -0.159 23.454816731409128 11.520316018420933 7.975267830236085 0 0 0
2595 124 4 0.053 22.94574531609208 11.88536051142006 8.912217364302986 0 0 0
8886 424 1 -0.159 22.060444180143406 14.31931929990146 30.887204880362344 0 0 0
2596 124 4 0.053 23.200398349143512 12.14785526831006 7.08209063597081 0 0 0
2600 124 4 0.053 24.441460656243443 9.697114497518616 3.798526421162493 0 0 0
8888 424 2 0.107 20.172331191005956 13.25630342283475 2.5969960382706256 0 0 1
8890 424 1 -0.159 20.221584432013 11.89153933722353 3.3598954589253878 0 0 1
8902 424 4 0.053 19.934118866411087 11.901236523582533 4.410497151416101 0 0 1
8898 424 4 0.053 20.837843636658853 13.979367019183503 3.1166810163608263 0 0 1
265 13 4 0.053 16.969362529439834 9.1961181317425 4.874369535773761 0 0 0
255 13 1 -0.159 16.29546828757536 10.058170952403461 5.019440107643007 0 0 0
2589 124 1 -0.159 23.706804542594 8.984149096400708 4.249664299185245 0 0 0
2601 124 4 0.053 22.690447796071567 9.462360172583663 4.296929777648113 0 0 0
2599 124 4 0.053 23.642782882896814 8.083895944724356 3.6820636952345493 0 0 0
268 13 4 0.053 17.760501182111444 14.480048329413789 7.380653398601902 0 0 0
8903 424 4 0.053 21.24037593002124 11.423107461703163 3.2507476320743116 0 0 1
8899 424 4 0.053 18.51946679524551 14.773627410500092 2.379699422745529 0 0 1
8901 424 4 0.053 17.89514965750952 13.166263883481406 2.6441066323235636 0 0 1
8889 424 1 -0.159 18.734678471423862 13.881192847316985 2.87778669531288 0 0 1
8900 424 4 0.053 18.55313542458043 14.033334655753832 3.9953228798195695 0 0 1
270 13 4 0.053 18.44630751973742 12.856135734422983 7.492975993201635 0 0 0
8685 414 4 0.053 22.967812177795242 8.920050288781617 0.7678834737158902 0 0 1
8904 424 4 0.053 19.537220201869605 11.121045853129488 2.9203660100735838 0 0 1
8896 424 4 0.053 22.388754315180098 15.144552224362604 0.5828767651796325 0 0 1
2584 124 1 -0.159 24.085163544725585 9.121853414052431 8.67024050114533 0 0 0
2592 124 4 0.053 24.037231830587174 8.122784572354206 8.301359471499504 0 0 0
8885 424 2 0.107 21.69307853969401 12.984063934883165 0.6482237417438439 0 0 1
8894 424 4 0.053 22.441333211381053 12.74460983008723 1.4604464904837962 0 0 1
8687 414 4 0.053 24.42290099227069 8.355088425791031 30.91966298296399 0 0 0
8686 414 4 0.053 23.707503369836974 9.827357309280048 30.368414892449632 0 0 0
8676 414 1 -0.159 23.482159016824124 8.820314043704283 30.76736364684682 0 0 0
8243 393 4 0.053 16.901908149779516 0.25317051538845514 21.582574673280757 0 1 0
739 36 3 -0.32 30.551705791809074 21.637287717360138 0.30973974239035634 0 0 0
2588 124 2 0.107 24.150893246935865 8.70271349209601 5.686442703895552 0 0 0
2598 124 4 0.053 23.40061540304271 7.944528252153951 6.034105770086159 0 0 0
2587 124 3 -0.32 24.025679204540893 9.982229108368308 6.388141957132077 0 0 0
2604 124 4 0.053 26.49800682484323 8.745973160028083 5.563030750453335 0 0 0
2602 124 4 0.053 25.607047788010977 7.1892513428209925 5.27735153331543 0 0 0
2590 124 1 -0.159 25.620551357772143 8.08715504057043 5.845032700346609 0 0 0
307 15 4 0.053 27.633837632496224 8.245273106819907 2.03025837365164 0 0 0
298 15 3 -0.32 26.643581295893362 11.406969019796769 1.407037270442378 0 0 0
300 15 1 -0.159 25.309970578343165 13.23036989851726 1.7329906535577466 0 0 0
505 25 1 -0.159 26.31800069744314 12.127313632376843 5.151710794084187 0 0 0
312 15 4 0.053 26.322170674046856 13.450412934923545 1.9962075138176922 0 0 0
297 15 1 -0.159 27.644056081297197 9.38731100256965 2.143810907999009 0 0 0
515 25 4 0.053 26.669271392321605 14.050914931862682 4.272544512588227 0 0 0
506 25 2 0.107 26.849075195434533 13.551062880324604 5.273379706599616 0 0 0
310 15 4 0.053 24.71016721945831 13.07502693419953 2.6866584115345904 0 0 0
306 15 4 0.053 28.53828682412067 9.71555687026944 2.7154194922834405 0 0 0
508 25 3 -0.32 28.219246345717238 13.50843858339621 5.702065772630376 0 0 0
519 25 4 0.053 28.83794146243419 13.246077846062159 3.689852708144079 0 0 0
509 25 2 0.107 29.239314171861555 13.657376585455209 4.688184956261724 0 0 0
513 25 4 0.053 27.01872885241614 11.469120692727765 4.636937882789771 0 0 0
510 25 1 -0.159 29.71018026113042 15.082347817956002 4.669228536817546 0 0 0
520 25 4 0.053 28.93798643355657 15.837288241983538 4.521906851411651 0 0 0
514 25 4 0.053 25.38785751841011 12.130178589804805 4.627803908842608 0 0 0
2603 124 4 0.053 25.78538537382116 7.652766407204945 6.912094944936522 0 0 0
512 25 4 0.053 26.22498770169962 11.72466010747327 6.169247478702648 0 0 0
511 25 1 -0.159 30.435772530040595 12.719916055501862 5.0817730656303155 0 0 0
107 6 2 0.107 30.68198342519153 3.075567827025301 2.83089586217653 0 0 0
295 15 1 -0.159 28.208874802445443 10.284198058766629 30.92008659414791 0 0 -1
507 25 1 -0.159 26.180870617716806 14.305230347853785 6.418055347748157 0 0 0
518 25 4 0.053 26.291837612926553 13.886100843414157 7.4497357234315285 0 0 0
304 15 4 0.053 29.099740742346885 10.66426654902007 0.5187856789860165 0 0 0
521 25 4 0.053 30.450676179966745 15.12020067526641 3.882387605346841 0 0 0
1905 91 4 0.053 6.224085418035731 0.20112003797912742 0.9722874233822602 0 1 0
525 25 4 0.053 29.931859654399588 11.766185983107336 5.317882777894425 0 0 0
311 15 4 0.053 24.999547890002148 14.049970465895543 1.1398081582968258 0 0 0
2830 135 4 0.053 23.694794831299077 14.908972091315455 4.551257219572573 0 0 0
9449 450 4 0.053 0.6870772179567302 22.21134798755113 24.56018027377676 1 0 0
2597 124 4 0.053 24.512605451379095 11.701814472410813 8.254848571456249 0 0 0
516 25 4 0.053 25.176831245195668 14.732884443745181 6.198285561561463 0 0 0
517 25 4 0.053 26.720601302886372 15.22814696067724 6.5589972742684415 0 0 0