
print ""

print "Starting deforming run. T = ${T} K"
Starting deforming run. T = 303.15 K
print ""


units                  real
boundary               p p p
atom_style             full

pair_style      lj/class2/coul/long ${r_cut}
pair_style      lj/class2/coul/long 6.0
pair_modify     tail yes mix sixthpower
#suffix          off
kspace_style    pppm ${k_accuracy}
kspace_style    pppm 1.0e-4
#suffix          on
special_bonds   lj/coul 0.0 0.0 1.0 dihedral yes
bond_style      class2
angle_style     class2
dihedral_style  class2
improper_style  class2

read_data ../mol_data/DIPE.mol.lmp
Reading data file ...
  orthogonal box = (-4.7778067 -2.6499418 -1.1216526) to (1.7131361 2.9952824 4.7428849)
  2 by 1 by 2 MPI processor grid
  reading atoms ...
  21 atoms
  scanning bonds ...
  4 = max bonds/atom
  scanning angles ...
  6 = max angles/atom
  scanning dihedrals ...
  9 = max dihedrals/atom
  scanning impropers ...
  4 = max impropers/atom
  reading bonds ...
  20 bonds
  reading angles ...
  37 angles
  reading dihedrals ...
  42 dihedrals
  reading impropers ...
  24 impropers
Finding 1-2 1-3 1-4 neighbors ...
  special bond factors lj:    0        0        1       
  special bond factors coul:  0        0        1       
     4 = max # of 1-2 neighbors
     7 = max # of 1-3 neighbors
    11 = max # of special neighbors
  special bonds CPU = 0.000 seconds
  read_data CPU = 0.009 seconds
replicate ${n_repl_x} ${n_repl_y} ${n_repl_z}
replicate 10 ${n_repl_y} ${n_repl_z}
replicate 10 10 ${n_repl_z}
replicate 10 10 5
Replicating atoms ...
  orthogonal box = (-4.7778067 -2.6499418 -1.1216526) to (60.131622 53.8023 28.201035)
  2 by 2 by 1 MPI processor grid
  10500 atoms
  10000 bonds
  18500 angles
  21000 dihedrals
  12000 impropers
Finding 1-2 1-3 1-4 neighbors ...
  special bond factors lj:    0        0        1       
  special bond factors coul:  0        0        1       
     4 = max # of 1-2 neighbors
     7 = max # of 1-3 neighbors
    11 = max # of special neighbors
  special bonds CPU = 0.001 seconds
  replicate CPU = 0.002 seconds

neighbor        ${r_skin} bin
neighbor        2.0 bin
neigh_modify    delay ${n_delay} every ${n_every} check yes
neigh_modify    delay 0 every ${n_every} check yes
neigh_modify    delay 0 every 1 check yes


velocity        all create ${T} ${seed} loop geom mom yes rot yes
velocity        all create 303.15 ${seed} loop geom mom yes rot yes
velocity        all create 303.15 873436 loop geom mom yes rot yes

timestep  ${time_step}
timestep  1

thermo_style custom step time etotal temp vol density press
thermo    ${thermo_step}
thermo    1000

variable E equal etotal
variable Pres equal press
variable Temp equal temp
variable Dens equal density
fix data1 all ave/time ${ave_nevery} ${ave_nrepeat} ${ave_nfreq} v_E v_Temp v_Pres v_Dens file ${data_file}
fix data1 all ave/time 1 ${ave_nrepeat} ${ave_nfreq} v_E v_Temp v_Pres v_Dens file ${data_file}
fix data1 all ave/time 1 500 ${ave_nfreq} v_E v_Temp v_Pres v_Dens file ${data_file}
fix data1 all ave/time 1 500 500 v_E v_Temp v_Pres v_Dens file ${data_file}
fix data1 all ave/time 1 500 500 v_E v_Temp v_Pres v_Dens file data.txt

# Compression run

variable Lx equal "v_n_repl_x/v_rho^(1.0/3.0)*v_koef1"
variable Ly equal "v_n_repl_y/v_rho^(1.0/3.0)*v_koef1"
variable Lz equal "v_n_repl_z/v_rho^(1.0/3.0)*v_koef1"
fix def1 all deform 1 x final 0 ${Lx} y final 0 ${Ly} z final 0 ${Lz}
fix def1 all deform 1 x final 0 61.9676402808313 y final 0 ${Ly} z final 0 ${Lz}
fix def1 all deform 1 x final 0 61.9676402808313 y final 0 61.9676402808313 z final 0 ${Lz}
fix def1 all deform 1 x final 0 61.9676402808313 y final 0 61.9676402808313 z final 0 30.9838201404157
fix lang1 all langevin ${T} ${T} ${lang_force} ${seed}
fix lang1 all langevin 303.15 ${T} ${lang_force} ${seed}
fix lang1 all langevin 303.15 303.15 ${lang_force} ${seed}
fix lang1 all langevin 303.15 303.15 100 ${seed}
fix lang1 all langevin 303.15 303.15 100 873436
fix nve1 all nve

run ${run_steps}
run 100000

CITE-CITE-CITE-CITE-CITE-CITE-CITE-CITE-CITE-CITE-CITE-CITE-CITE

Your simulation uses code contributions which should be cited:

- GPU package (short-range, long-range and three-body potentials):

@Article{Brown11,
 author = {W. M. Brown, P. Wang, S. J. Plimpton, A. N. Tharrington},
 title = {Implementing Molecular Dynamics on Hybrid High Performance Computers - Short Range Forces},
 journal = {Comp.~Phys.~Comm.},
 year =    2011,
 volume =  182,
 pages =   {898--911}
}

@Article{Brown12,
 author = {W. M. Brown, A. Kohlmeyer, S. J. Plimpton, A. N. Tharrington},
 title = {Implementing Molecular Dynamics on Hybrid High Performance Computers - Particle-Particle Particle-Mesh},
 journal = {Comp.~Phys.~Comm.},
 year =    2012,
 volume =  183,
 pages =   {449--459}
}

@Article{Brown13,
 author = {W. M. Brown, Y. Masako},
 title = {Implementing Molecular Dynamics on Hybrid High Performance Computers – Three-Body Potentials},
 journal = {Comp.~Phys.~Comm.},
 year =    2013,
 volume =  184,
 pages =   {2785--2793}
}

@Article{Trung15,
 author = {T. D. Nguyen, S. J. Plimpton},
 title = {Accelerating dissipative particle dynamics simulations for soft matter systems},
 journal = {Comput.~Mater.~Sci.},
 year =    2015,
 volume =  100,
 pages =   {173--180}
}

@Article{Trung17,
 author = {T. D. Nguyen},
 title = {GPU-accelerated Tersoff potentials for massively parallel Molecular Dynamics simulations},
 journal = {Comp.~Phys.~Comm.},
 year =    2017,
 volume =  212,
 pages =   {113--122}
}

@Article{Nikolskiy19,
 author = {V. Nikolskiy, V. Stegailov},
 title = {GPU acceleration of four-site water models in LAMMPS},
 journal = {Proceeding of the International Conference on Parallel Computing (ParCo 2019), Prague, Czech Republic},
 year =    2019
}

CITE-CITE-CITE-CITE-CITE-CITE-CITE-CITE-CITE-CITE-CITE-CITE-CITE

PPPM initialization ...
  using 12-bit tables for long-range coulomb (src/kspace.cpp:342)
  G vector (1/distance) = 0.32746283
  grid = 24 24 15
  stencil order = 5
  estimated absolute RMS force accuracy = 0.031945709
  estimated relative force accuracy = 9.6203553e-05
  using double precision KISS FFT
  3d grid and FFT values/proc = 6358 2304
Generated 6 of 6 mixed pair_coeff terms from sixthpower/sixthpower mixing rule
Per MPI rank memory allocation (min/avg/max) = 13.7 | 13.71 | 13.71 Mbytes
   Step          Time          TotEng          Temp          Volume        Density         Press     
         0   0             -11695.442      303.15         107446.62      0.78955648     7323.9306    
      1000   1000          -4545.3344      303.53907      107563.75      0.78869669     3190.4657    
      2000   2000          -4540.8191      304.45492      107680.85      0.787839       162.1239     
      3000   3000          -4776.7686      307.7619       107797.92      0.7869834      1036.8843    
      4000   4000          -4888.5236      304.16734      107914.96      0.78612989     1553.1239    
      5000   5000          -4945.325       299.30185      108031.96      0.78527847     930.01511    
      6000   6000          -4977.0536      303.7775       108148.93      0.78442912     977.72168    
      7000   7000          -4735.4443      305.88123      108265.87      0.78358184     420.92929    
      8000   8000          -4714.4862      303.79349      108382.78      0.78273662     312.00028    
      9000   9000          -4820.7731      302.89392      108499.66      0.78189346     747.61986    
     10000   10000         -4865.4657      302.9792       108616.5       0.78105235     663.31943    
     11000   11000         -4780.9748      305.9045       108733.31      0.78021329     608.57414    
     12000   12000         -4831.0285      302.52025      108850.09      0.77937626     545.79365    
     13000   13000         -4933.3791      302.6739       108966.83      0.77854127    -46.975212    
     14000   14000         -4771.648       304.54966      109083.54      0.7777083      290.27324    
     15000   15000         -4748.8002      303.22847      109200.21      0.77687735     1400.2483    
     16000   16000         -4840.5184      299.90187      109316.86      0.77604842     1238.9786    
     17000   17000         -4717.1206      304.59379      109433.46      0.77522149     154.90576    
     18000   18000         -4820.8608      302.77435      109550.04      0.77439657    -423.44432    
     19000   19000         -4768.3547      305.49968      109666.58      0.77357364     969.82934    
     20000   20000         -4828.1535      301.95651      109783.08      0.7727527      703.97417    
     21000   21000         -4670.854       300.73877      109899.55      0.77193375     56.654348    
     22000   22000         -4863.0208      302.01446      110015.99      0.77111677    -681.5518     
     23000   23000         -4792.9208      303.81973      110132.39      0.77030176     810.51561    
     24000   24000         -4683.5427      306.25232      110248.75      0.76948872     305.26207    
     25000   25000         -4635.4477      303.67878      110365.08      0.76867764     241.19472    
     26000   26000         -4677.4202      304.01398      110481.38      0.76786852     585.06666    
     27000   27000         -4732.2792      302.71956      110597.64      0.76706134     596.12065    
     28000   28000         -4524.2221      305.59043      110713.86      0.76625611     359.8628     
     29000   29000         -4581.6515      307.05221      110830.05      0.76545281     618.6406     
     30000   30000         -4597.4545      305.12435      110946.2       0.76465144     473.3233     
     31000   31000         -4687.2386      303.9532       111062.32      0.763852       95.177509    
     32000   32000         -4663.788       307.13783      111178.4       0.76305448     550.97576    
     33000   33000         -4620.484       302.90956      111294.44      0.76225887     256.31112    
     34000   34000         -4745.4967      303.81354      111410.44      0.76146518     669.63349    
     35000   35000         -4838.034       302.85192      111526.41      0.76067338    -117.69743    
     36000   36000         -4431.786       308.1288       111642.34      0.75988348     480.29963    
     37000   37000         -4913.2613      301.16776      111758.24      0.75909547     180.55341    
     38000   38000         -4586.2337      305.25543      111874.1       0.75830935    -292.52489    
     39000   39000         -4475.1518      305.09883      111989.92      0.75752511    -662.20237    
     40000   40000         -4525.4129      308.17679      112105.7       0.75674275     1049.6026    
     41000   41000         -4652.0806      301.30365      112221.44      0.75596225     80.664188    
     42000   42000         -4644.9919      303.91167      112337.15      0.75518362     264.6678     
     43000   43000         -4576.5945      304.98486      112452.82      0.75440684     606.22137    
     44000   44000         -4600.3619      303.63987      112568.44      0.75363192     494.91874    
     45000   45000         -4838.78        301.89361      112684.04      0.75285885     949.28493    
     46000   46000         -4441.6186      305.53787      112799.59      0.75208762     494.38741    
     47000   47000         -4671.8706      302.10652      112915.1       0.75131822     822.60998    
     48000   48000         -4773.1626      301.05904      113030.58      0.75055066    -2.8490771    
     49000   49000         -4433.3205      306.06638      113146.01      0.74978492     808.12123    
     50000   50000         -4759.5883      301.44582      113261.41      0.74902101     919.16746    
     51000   51000         -4606.9008      301.47755      113376.76      0.74825891    -365.07489    
     52000   52000         -4456.3762      303.34016      113492.08      0.74749862     495.19215    
     53000   53000         -4508.2926      305.08051      113607.36      0.74674013     1346.1595    
     54000   54000         -4592.3597      301.11663      113722.59      0.74598345    -123.89955    
     55000   55000         -4562.6154      306.11961      113837.79      0.74522856     725.09566    
     56000   56000         -4677.6796      297.01302      113952.95      0.74447545    -602.8583     
     57000   57000         -4307.9318      305.74954      114068.07      0.74372414    -167.35138    
     58000   58000         -4608.2549      300.22615      114183.14      0.7429746      356.02016    
     59000   59000         -4601.2391      304.06429      114298.18      0.74222684     101.49574    
     60000   60000         -4484.5804      307.78512      114413.17      0.74148084    -337.38851    
     61000   61000         -4476.9173      304.82639      114528.12      0.74073661    -578.13044    
     62000   62000         -4373.3002      301.70798      114643.03      0.73999414     661.33524    
     63000   63000         -4696.0174      300.92073      114757.9       0.73925342     260.59848    
     64000   64000         -4469.1631      303.29152      114872.73      0.73851445     1281.9235    
     65000   65000         -4642.7423      301.62725      114987.52      0.73777722     835.86346    
     66000   66000         -4445.9354      300.81466      115102.27      0.73704174     64.773389    
     67000   67000         -4690.6682      301.07122      115216.97      0.73630798     770.90631    
     68000   68000         -4357.2794      308.28457      115331.63      0.73557596    -432.97702    
     69000   69000         -4667.6021      299.01225      115446.25      0.73484566    -325.95666    
     70000   70000         -4540.771       301.69346      115560.82      0.73411707    -638.9359     
     71000   71000         -4617.8478      302.12489      115675.36      0.73339021    -752.36145    
     72000   72000         -4381.2675      304.63581      115789.85      0.73266505    -428.42752    
     73000   73000         -4550.5154      301.00228      115904.29      0.73194159    -25.899938    
     74000   74000         -4521.771       301.88347      116018.7       0.73121984     91.580431    
     75000   75000         -4450.0049      303.92533      116133.06      0.73049978    -822.87394    
     76000   76000         -4500.1626      302.56868      116247.38      0.72978141    -301.68442    
     77000   77000         -4393.9336      307.22624      116361.65      0.72906472     464.01992    
     78000   78000         -4427.5517      305.27646      116475.88      0.72834972     106.73297    
     79000   79000         -4417.2537      306.33949      116590.06      0.72763639     224.63974    
     80000   80000         -4563.4651      301.38908      116704.21      0.72692473    -646.58381    
     81000   81000         -4551.0017      304.77077      116818.3       0.72621474    -842.53049    
     82000   82000         -4406.771       301.49735      116932.36      0.72550641    -352.28373    
     83000   83000         -4538.7336      302.13216      117046.36      0.72479974    -170.26023    
     84000   84000         -4404.6006      305.20029      117160.33      0.72409472     261.33565    
     85000   85000         -4406.8985      307.13931      117274.24      0.72339134    -34.008781    
     86000   86000         -4688.8374      298.88018      117388.12      0.72268961    -56.46746     
     87000   87000         -4435.9271      300.30746      117501.95      0.72198952    -224.80817    
     88000   88000         -4427.1354      304.16894      117615.73      0.72129106     326.01425    
     89000   89000         -4342.7874      305.10046      117729.46      0.72059423    -433.00563    
     90000   90000         -4376.466       302.42164      117843.16      0.71989903    -343.1879     
     91000   91000         -4508.5813      299.62764      117956.8       0.71920545     485.83775    
     92000   92000         -4398.583       303.21822      118070.4       0.71851348    -1140.4564    
     93000   93000         -4479.3856      300.45082      118183.95      0.71782312     142.86646    
     94000   94000         -4378.1215      304.31224      118297.46      0.71713437     488.20711    
     95000   95000         -4355.0908      302.30383      118410.92      0.71644722    -364.51472    
     96000   96000         -4415.1516      299.68075      118524.33      0.71576167    -1293.8896    
     97000   97000         -4350.3837      302.90098      118637.7       0.71507772     662.26539    
     98000   98000         -4402.8466      306.87829      118751.02      0.71439535     274.43927    
     99000   99000         -4433.7433      304.35306      118864.29      0.71371457     167.62749    
    100000   100000        -4329.5374      304.60783      118977.51      0.71303537     189.48866    
Loop time of 494.599 on 4 procs for 100000 steps with 10500 atoms

Performance: 17.469 ns/day, 1.374 hours/ns, 202.184 timesteps/s
98.5% CPU use with 4 MPI tasks x 1 OpenMP threads

MPI task timing breakdown:
Section |  min time  |  avg time  |  max time  |%varavg| %total
---------------------------------------------------------------
Pair    | 30.389     | 32.917     | 37.407     |  49.6 |  6.66
Bond    | 339.22     | 341.98     | 345.83     |  13.7 | 69.14
Kspace  | 44.981     | 48.855     | 51.74      |  37.3 |  9.88
Neigh   | 2.0256     | 2.0314     | 2.036      |   0.3 |  0.41
Comm    | 9.3667     | 9.4295     | 9.5256     |   1.9 |  1.91
Output  | 0.003218   | 0.0047083  | 0.0090238  |   3.6 |  0.00
Modify  | 45.114     | 54.967     | 59.498     |  78.4 | 11.11
Other   |            | 4.417      |            |       |  0.89

Nlocal:           2625 ave        2645 max        2574 min
Histogram: 1 0 0 0 0 0 0 0 1 2
Nghost:         6543.5 ave        6583 max        6516 min
Histogram: 1 0 1 1 0 0 0 0 0 1
Neighs:              0 ave           0 max           0 min
Histogram: 4 0 0 0 0 0 0 0 0 0

Total # of neighbors = 0
Ave neighs/atom = 0
Ave special neighs/atom = 5.4285714
Neighbor list builds = 3727
Dangerous builds = 0

unfix def1
unfix lang1
unfix nve1
unfix data1

write_data ${restart_file}
write_data rst.lmp
System init for write_data ...
PPPM initialization ...
  using 12-bit tables for long-range coulomb (src/kspace.cpp:342)
  G vector (1/distance) = 0.32656047
  grid = 24 24 15
  stencil order = 5
  estimated absolute RMS force accuracy = 0.031010178
  estimated relative force accuracy = 9.3386231e-05
  using double precision KISS FFT
  3d grid and FFT values/proc = 5780 2304
Generated 6 of 6 mixed pair_coeff terms from sixthpower/sixthpower mixing rule
Total wall time: 0:08:16
