LAMMPS data file via write_data, version 23 Jun 2022, timestep = 100000

12000 atoms
2 atom types
8000 bonds
1 bond types
4000 angles
1 angle types

0 62.085954353 xlo xhi
0 62.085954353 ylo yhi
0 31.0429771765 zlo zhi

Masses

1 15.999
2 1.008

Pair Coeffs # lj/class2/coul/long/gpu

1 0.08 3.84
2 0.008 1.087

Bond Coeffs # class2

1 0.9572 552 -1276 1787

Angle Coeffs # class2

1 104.52 46.65 -11.7 -8.79

BondBond Coeffs

1 0 0.9572 0.9572

BondAngle Coeffs

1 0 0 0.9572 0.9572

Atoms # full

130 44 1 -0.82 5.423666809547858 5.258163237673405 4.233235360344225 0 0 0
131 44 2 0.41 5.69156317683409 6.123066421864033 4.596510171536991 0 0 0
10 4 1 -0.82 3.4863210260875475 1.6345586490558417 4.7451637973656 0 0 0
11 4 2 0.41 4.340062722523319 1.7368239161726662 4.27370263420923 0 0 0
3844 1282 1 -0.82 7.620131453317886 3.5203725180306358 4.130006967159096 0 0 0
3670 1224 1 -0.82 7.327544863203661 1.9498368145248042 6.824499252744344 0 0 0
1084 362 1 -0.82 2.5358890718403178 5.3695551148739495 5.100825270734203 0 1 0
1085 362 2 0.41 2.4770955429228088 5.694895255306455 6.028924638619398 0 1 0
1086 362 2 0.41 2.141916644351791 6.118353456290379 4.627650461387412 0 1 0
3846 1282 2 0.41 8.356061305605868 3.7245183484021913 4.7295271697739025 0 0 0
132 44 2 0.41 4.5554221873020255 5.115787229058158 4.624843107398081 0 0 0
3672 1224 2 0.41 7.812242124594734 2.697223712726365 6.43321262591443 0 0 0
2469 823 2 0.41 5.453788091303228 1.561996590253862 6.805763184475953 0 0 0
12 4 2 0.41 3.782255069386202 1.8459775417366642 5.64728610911158 0 0 0
10866 3622 2 0.41 8.375559574766271 3.6141561227732204 0.44215499213049786 0 0 1
2467 823 1 -0.82 4.577242118169747 1.7596831441741765 7.110940829451469 0 0 0
1137 379 2 0.41 2.712708452291838 1.10105029498817 3.239065073127607 1 1 0
10750 3584 1 -0.82 5.6656084272198735 2.1661797527142386 2.8789108738800566 0 1 1
10865 3622 2 0.41 8.15216220564647 4.338555692819484 1.6661257920098258 0 0 1
10751 3584 2 0.41 5.4683317540700545 2.8702494842727426 2.2273593868281303 0 1 1
114 38 2 0.41 1.9586125399937167 7.822600191269241 6.604253840324941 1 0 0
112 38 1 -0.82 2.359526051701321 7.011247179177189 7.022577966898726 1 0 0
1210 404 1 -0.82 6.082541564589649 4.817584229729538 1.7699116223523697 0 0 0
10752 3584 2 0.41 6.36529701372078 2.6794853086724646 3.2783492498279094 0 1 1
3901 1301 1 -0.82 5.061903768253043 6.995371005512664 7.166992626809115 0 0 0
2468 823 2 0.41 4.221950058503516 0.9861035635650849 7.602172691830535 0 0 0
3542 1181 2 0.41 3.539353469855065 7.699037705929917 1.7257792191146097 0 1 0
3541 1181 1 -0.82 2.7027160495663494 7.566048345239426 2.1746077097128413 0 1 0
3903 1301 2 0.41 5.0751538203808915 7.45557167956709 6.309240161407705 0 0 0
113 38 2 0.41 2.474417440144403 7.251968961171631 7.924929820621561 1 0 0
3543 1181 2 0.41 2.3082207825823953 6.631369043976044 1.9084691046383528 0 1 0
1135 379 1 -0.82 2.282035022058618 0.9191177100965104 2.4307439421784944 1 1 0
135 45 2 0.41 4.4650088088157265 3.3204139007355153 7.870714743118802 0 0 0
1166 389 2 0.41 27.77802275748274 0.4058670353191564 1.0038489347242403 0 1 0
3845 1282 2 0.41 7.210857325545158 4.4006651241307395 3.8974767014322365 0 0 0
10864 3622 1 -0.82 8.862838435618691 4.049441146887902 1.1307349575114298 0 0 1
3609 1203 2 0.41 8.294749215280508 0.4549209377826919 6.1245695086302305 0 0 0
11039 3680 2 0.41 1.8336131996642064 3.637734392594062 1.9010210723459124 1 0 1
5338 1780 1 -0.82 0.0761951528989899 21.0288188599538 11.438625146819772 1 0 0
8948 2983 2 0.41 10.368079061067052 30.45825788346348 19.545239824188762 0 0 0
11038 3680 1 -0.82 1.7051411203040399 4.5189679787742305 2.231176059341659 1 0 1
7976 2659 2 0.41 2.6188226452232617 31.018991630322898 18.262365850582658 1 0 0
8943 2981 2 0.41 1.8856665799307295 30.29440182417975 25.39412868868739 0 0 0
7883 2628 2 0.41 23.30807822653972 23.269299064912826 27.293684817450178 0 0 0
549 183 2 0.41 11.777767282299065 30.64397197694706 29.306855217047787 0 0 -1
11949 3983 2 0.41 5.364329501717721 1.3995646122892589 31.037923929154285 0 1 0
3 1 2 0.41 0.6184996138441751 5.6972900794126735 0.35208545070266817 0 0 0
9596 3199 2 0.41 2.1956082845515366 1.4786319429529082 0.8920799592909827 1 1 1
1379 460 2 0.41 1.1124970557045912 3.8540718312970657 5.321599956138239 1 0 0
11040 3680 2 0.41 1.8299387800233917 4.416439382404263 3.166556801314732 1 0 1
1 1 1 -0.82 0.2982280291663846 6.62961151623857 0.5473384653224769 0 0 0
7741 2581 1 -0.82 2.123024231647912 30.45525160612528 13.196145124482914 0 0 0
4931 1644 2 0.41 11.030103012306173 1.4664234816937003 0.7599400175535868 0 0 0
7480 2494 1 -0.82 30.757322780039747 6.752444938406418 27.052779984063427 0 0 0
4932 1644 2 0.41 11.903679905984774 1.5532230404093563 1.9224954198139157 0 0 0
4930 1644 1 -0.82 11.13517386762035 1.1437539264624752 1.6544162373003959 0 0 0
1273 425 1 -0.82 11.627887526468777 2.041935648385487 5.408847729970799 0 0 0
1274 425 2 0.41 12.147230010094175 2.6820200048983303 4.991953672239446 0 0 0
4759 1587 1 -0.82 14.130318596486768 3.0230869918359065 3.360366434610508 0 1 0
4761 1587 2 0.41 14.321313271229448 2.192734603143299 3.835554115011286 0 1 0
2417 806 2 0.41 12.078607252484886 7.136658260097754 1.5350900344080656 0 0 0
2416 806 1 -0.82 11.711765958743884 8.038915172913237 1.5285305938569287 0 0 0
1276 426 1 -0.82 11.34913334326019 5.409558450828689 2.832881068115551 0 0 0
1278 426 2 0.41 10.55989380363796 5.373137528663376 3.40477440788291 0 0 0
1277 426 2 0.41 10.977426556933644 4.9757073787867006 2.1006733112634492 0 0 0
1338 446 2 0.41 11.865726954250261 6.637717908924744 6.744369995539758 0 0 0
1337 446 2 0.41 12.392963905955593 7.372952874961853 5.588513985850626 0 0 0
4760 1587 2 0.41 14.011182098718928 3.6922402866597976 4.106914215183545 0 1 0
2354 785 2 0.41 12.55876418115788 5.886310375001118 3.643296880596877 0 1 0
2353 785 1 -0.82 13.185356553456302 6.5082797431390595 4.176778170155275 0 1 0
10872 3624 2 0.41 13.363316655826734 7.91309894333186 29.93138231254722 0 0 0
2477 826 2 0.41 14.284420564496163 4.4731646399144065 6.326339565149431 0 0 0
2476 826 1 -0.82 13.448734432961459 4.446335806903338 5.816518806215488 0 0 0
2478 826 2 0.41 12.844174139137737 4.099339921315588 6.511912222282175 0 0 0
2347 783 1 -0.82 14.801545668247954 1.058484559582865 5.073428847899885 0 1 0
2355 785 2 0.41 13.660924656723218 5.816309909367992 4.755800379365318 0 1 0
5961 1987 2 0.41 10.389407870498557 3.370117734644862 6.202957556526591 0 1 0
1334 445 2 0.41 8.922824502694015 6.870982062542243 3.5409355113723535 0 0 0
2593 865 1 -0.82 15.514022225905594 7.534709865290494 3.0177925529606093 0 0 0
2594 865 2 0.41 14.716141300640054 7.146881570419409 3.3988124626639125 0 0 0
1333 445 1 -0.82 9.262528820278176 6.415534183450375 4.326215311938886 0 0 0
5050 1684 1 -0.82 10.77503270277688 5.582993985818045 7.789587754745481 0 0 0
5051 1684 2 0.41 11.49700434623066 5.150344031046167 8.229164715668704 0 0 0
5052 1684 2 0.41 10.65511753759863 6.3632123818860435 8.354177644564366 0 0 0
2534 845 2 0.41 7.622263762244862 5.7171874379792404 6.721985838813715 0 0 0
2292 764 2 0.41 14.5976550432369 1.5876337487314485 0.42538468236690746 0 1 0
1335 445 2 0.41 8.917318132948653 7.1231257598173086 4.9529959750400945 0 0 0
2595 865 2 0.41 15.363416157663721 8.495213321615708 2.795657191671942 0 0 0
2535 845 2 0.41 6.530954572557115 6.305776000407167 7.500662374696867 0 0 0
2533 845 1 -0.82 7.381787686832812 5.783820645582293 7.6330525026746034 0 0 0
2604 868 2 0.41 21.705586607469353 0.4508759691758513 0.7692745015520591 0 0 0
2290 764 1 -0.82 15.016285482708298 0.6928898946728925 0.3649088614312289 0 1 0
254 85 2 0.41 15.802212674288956 2.8194847983215974 2.4391842998689586 0 0 0
1218 406 2 0.41 15.46843934705589 5.776734101086371 7.825160454178348 0 0 0
255 85 2 0.41 16.749308564724178 2.239115723578752 1.4943310002954282 0 0 0
2296 766 1 -0.82 16.14391759561201 6.99337060449743 0.28036188706339166 0 1 0
8360 2787 2 0.41 19.9044448929749 1.1361052712223556 4.297984337094144 0 1 0
253 85 1 -0.82 16.74693230060434 2.5012282587858463 2.427376784734906 0 0 0
1103 368 2 0.41 18.010996160340063 5.619719104992081 6.127979492078122 0 1 0
1102 368 1 -0.82 17.238545953020576 5.2230379481651115 5.695364211095806 0 1 0
1104 368 2 0.41 17.7127749530229 5.093633062777387 4.830737870680617 0 1 0
1342 448 1 -0.82 20.523057396491566 5.873861510080742 5.024832140715628 0 0 0
199 67 1 -0.82 18.43183738198614 5.154168851359856 3.4637731264708864 0 0 0
200 67 2 0.41 18.01083076331797 4.467008248526869 2.825478984585113 0 0 0
1344 448 2 0.41 19.77424772562107 5.500535117047416 4.568712175397872 0 0 0
3624 1208 2 0.41 21.695521148428302 5.711954229373138 6.416428265514647 0 0 0
1343 448 2 0.41 20.702243512864996 6.591871707108444 4.3283138312105605 0 0 0
3622 1208 1 -0.82 22.295347715073007 6.141961499112777 7.047608637462989 0 0 0
3564 1188 2 0.41 21.969987198223407 2.9140226833082696 4.734090014237315 0 1 0
3562 1188 1 -0.82 22.932691947732263 3.044334909417125 4.539617441232181 0 1 0
2729 910 2 0.41 22.36262593127219 3.8445350607969697 1.634963562574127 0 0 0
2728 910 1 -0.82 22.991659156709005 3.6286798159419034 0.8731400343035643 0 0 0
2298 766 2 0.41 17.019746527095393 6.58914535091364 0.6387340644859547 0 1 0
11004 3668 2 0.41 20.26325958019304 2.4746501743069866 1.685784306618954 0 0 1
11003 3668 2 0.41 20.392403410383928 3.0126907009349986 3.037878993033616 0 0 1
11002 3668 1 -0.82 20.545961500915404 3.2362072673566056 2.1662485105095337 0 0 1
3623 1208 2 0.41 21.956621608180928 5.625447724266047 7.789707247799858 0 0 0
8359 2787 1 -0.82 19.65521877686039 2.085749822492205 4.4492472681612 0 1 0
2546 849 2 0.41 23.769757958919627 5.60194019044761 6.2443020676030905 0 0 0
3563 1188 2 0.41 23.036741447481514 3.9756988430404285 4.660414570478598 0 1 0
5002 1668 1 -0.82 25.30092471418265 7.934844283510452 7.057001410268083 0 0 0
5003 1668 2 0.41 24.904027817420513 8.661940666400271 7.546547555988531 0 0 0
2730 910 2 0.41 23.86139454501147 3.707916115194592 1.3089067315873697 0 0 0
1400 467 2 0.41 17.71441325947317 1.247759620147944 3.2584941548946733 0 0 0
8361 2787 2 0.41 18.768911110637884 1.9828847113434624 4.8286177712705625 0 1 0
201 67 2 0.41 18.480336552996484 5.821526213612485 2.776312860866907 0 0 0
11069 3690 2 0.41 16.364175126371826 7.316958726425021 8.19970973626484 0 0 1
11068 3690 1 -0.82 17.257200352714708 7.200548926855049 7.941852064784256 0 0 1
2483 828 2 0.41 22.478239375699147 2.10332026134946 7.94870017017022 0 0 0
3620 1207 2 0.41 23.73933517286748 1.076479200277814 5.052689280980373 0 0 0
1229 410 2 0.41 21.132519113085234 2.2270399573312383 30.05794302981927 0 0 -1
2735 912 2 0.41 29.33992403855644 13.020882998624536 7.822034809554415 0 0 0
2661 887 2 0.41 22.512607063203095 8.032741566164617 3.1054732563098373 0 0 0
2659 887 1 -0.82 21.501632195887773 8.023609408494666 3.17279832832062 0 0 0
2660 887 2 0.41 21.221617477079523 8.250432282187807 2.273326034567469 0 0 0
260 87 2 0.41 16.685843575357126 7.558492411571441 4.934588639517048 0 0 0
1534 512 1 -0.82 18.572162330790437 6.6351978428703 1.1586301791530522 0 0 0
2482 828 1 -0.82 21.730981811998237 1.7206295284953501 7.429359206855804 0 0 0
2484 828 2 0.41 21.818295807111813 0.8170329542787678 7.635913289114924 0 0 0
2664 888 2 0.41 22.052327062211287 7.614159243915128 7.750381092452394 0 0 0
2662 888 1 -0.82 21.88065359771929 8.476907818859742 8.125126451313587 0 0 0
1399 467 1 -0.82 17.915395393898045 0.26796642083391997 3.220273767070098 0 0 0
9961 3321 1 -0.82 0.535267729524256 21.138159562890678 21.42682098318727 0 0 0
4822 1608 1 -0.82 17.38211304720713 1.72303050233618 6.350079514327809 0 0 0
1228 410 1 -0.82 21.15984509568034 3.1996117304816742 29.931447218770664 0 0 -1
1536 512 2 0.41 19.184509734171897 6.526467564187171 0.41221166133745646 0 0 0
4824 1608 2 0.41 16.664012569620223 2.301125763896443 5.983195695628604 0 0 0
4093 1365 1 -0.82 18.382905799595317 30.96250645112581 15.747338280205854 0 0 0
1716 572 2 0.41 30.171849270897777 22.8942471659682 0.34705228288794016 0 0 0
1202 401 2 0.41 1.1908066309928487 1.3956424607543305 9.53993781564657 0 0 0
4762 1588 1 -0.82 24.76322871323515 5.479823069360951 2.7499705295300827 0 1 0
4764 1588 2 0.41 24.55656439045422 6.3201298442755816 2.2989401934478195 0 1 0
4763 1588 2 0.41 24.517368602350125 5.782003015103368 3.6013429319732877 0 1 0
2547 849 2 0.41 25.010250573849937 6.199446116038196 6.289819136114842 0 0 0
2545 849 1 -0.82 24.66181040639296 5.42713205168439 5.8635805991213426 0 0 0
2365 789 1 -0.82 25.568586989105732 1.764954907225959 2.8893175147194903 0 1 0
2366 789 2 0.41 24.94132820191486 1.358675238221914 3.519822959991349 0 1 0
8460 2820 2 0.41 0.3769444880042969 1.4093278565595575 22.658314934390056 1 0 0
2600 867 2 0.41 27.240671048145007 1.4344612227499565 8.05013978494593 0 0 0
2599 867 1 -0.82 26.857880226901116 2.342230012479071 8.071103037700107 0 0 0
2601 867 2 0.41 26.447112531187067 2.2785915165822965 8.952650487849839 0 0 0
2490 830 2 0.41 25.941173601536807 2.7727936826075372 6.282172492524478 0 0 0
2488 830 1 -0.82 26.07333863064412 3.2667991453201153 5.418099871101007 0 0 0
2489 830 2 0.41 25.536566969859308 4.09041766298884 5.5148580485132355 0 0 0
9755 3252 2 0.41 28.875740087226475 5.51866604646001 5.5433113520148165 0 0 1
1354 452 1 -0.82 26.072962553567507 3.7129802817270394 1.028714640727558 0 0 0
1355 452 2 0.41 25.806543041451928 4.289157731077039 1.7808599666200005 0 0 0
1356 452 2 0.41 26.146452855373443 2.8577820385126125 1.489451284659624 0 0 0
10890 3630 2 0.41 29.278805791099913 2.8911767593633053 4.51900618273023 0 0 1
1406 469 2 0.41 28.972830407570235 5.589561566889023 3.585208600789085 0 0 0
1405 469 1 -0.82 29.0063194716902 5.443650463720877 2.606873796643548 0 0 0
10888 3630 1 -0.82 28.430461166079912 2.4708705662981263 4.299106480072182 0 0 1
148 50 1 -0.82 28.220756123688865 4.521825277523922 7.086393882806625 0 0 0
150 50 2 0.41 27.65032743129176 5.227288609662769 7.48611191100993 0 0 0
149 50 2 0.41 27.758023470687586 3.7426934772617346 7.321531661362056 0 0 0
8484 2828 2 0.41 28.369198609312836 1.897175571826682 2.6704645680626564 0 0 1
9754 3252 1 -0.82 29.30097961740902 6.166015020747663 4.972655561034512 0 0 1
2367 789 2 0.41 26.072103514940338 2.3307113143491733 3.510621837871661 0 1 0
1686 562 2 0.41 0.8092349677570568 25.85106251665155 9.199269849706422 0 0 0
8482 2828 1 -0.82 28.523808290774742 1.6610292500054569 1.7292605507800998 0 0 1
8661 2887 2 0.41 29.709592881204564 4.389217108502073 1.372242870792668 0 0 1
10889 3630 2 0.41 27.75961027710194 3.0583506166673704 4.773833195045355 0 0 1
8483 2828 2 0.41 29.057267813859344 2.423590999244138 1.484322955403543 0 0 1
9756 3252 2 0.41 29.81549265433479 6.742842808822177 5.5848675808190364 0 0 1
5004 1668 2 0.41 25.60556982541113 8.538880700558645 6.310041120035336 0 0 0
1407 469 2 0.41 28.460829975795942 6.152776883612837 2.227068176482643 0 0 0
3566 1189 2 0.41 24.98793130081401 0.8449216332838395 1.33983617819388 0 1 0
8659 2887 1 -0.82 30.147070401901843 3.624851748839278 0.9194146161762307 0 0 1
8660 2887 2 0.41 30.155600507885257 3.894520836838448 31.038446951050883 0 0 0
486 162 2 0.41 12.707088091188039 30.838747710955296 25.505268280270027 0 0 -1
124 42 1 -0.82 5.7368015334350035 7.713317854340039 4.736457867291331 0 0 0
3902 1301 2 0.41 4.0388686570774235 6.949738499924129 7.185203880449198 0 0 0
126 42 2 0.41 6.674939688609396 7.926114612807686 4.862943680511113 0 0 0
1259 420 2 0.41 1.3881050819447658 11.011696817828653 0.24479170088855445 1 0 0
5033 1678 2 0.41 0.14615655667014257 4.325953540408666 20.94605455470769 1 0 0
125 42 2 0.41 5.419485983765212 8.112811001081845 3.8815542878290215 0 0 0
2592 864 2 0.41 3.0000046812045875 8.70414830501291 3.3445931699283715 0 0 0
2591 864 2 0.41 3.709407446549511 9.790616462298653 4.215572663747428 0 0 0
2590 864 1 -0.82 2.9482544691149903 9.182669765252575 4.2070336853015755 0 0 0
2520 840 2 0.41 1.5611224580909213 9.235627740422897 5.175635443442241 1 0 0
3841 1281 1 -0.82 2.2975671019835064 11.764896060676413 5.749796595342776 0 0 0
3842 1281 2 0.41 2.553410513539159 11.530081712054956 6.630055594814735 0 0 0
3843 1281 2 0.41 3.013271826435098 11.587777137989345 5.193393653047457 0 0 0
1501 501 1 -0.82 5.258344615742312 8.810789328962514 2.3451069108331324 0 0 0
1450 484 1 -0.82 4.67185696246824 11.64041972565345 3.599376361080152 0 0 0
1451 484 2 0.41 5.643584175537348 11.724764962350589 3.4161648878171698 0 0 0
1452 484 2 0.41 4.365464207186428 11.32517271781586 2.745713896582438 0 0 0
1502 501 2 0.41 4.927467192833617 9.494972098791395 1.7850729863901684 0 0 0
11107 3703 1 -0.82 4.497102769405168 15.428160097527561 1.4132185471328447 0 0 1
11109 3703 2 0.41 4.885485565757031 16.27154550777388 1.1732199467445523 0 0 1
11108 3703 2 0.41 4.212697429011541 15.163199828248201 0.5130363403904119 0 0 1
309 103 2 0.41 5.523312244528176 14.334474367342946 2.818304103181849 0 0 0
308 103 2 0.41 5.296097855372326 13.436592837794885 4.065982840497903 0 0 0
307 103 1 -0.82 5.876965974764302 14.117353748217766 3.7091322022288145 0 0 0
5105 1702 2 0.41 7.872388660030494 11.68012908245109 6.48270139480509 0 0 0
1503 501 2 0.41 5.912662927841729 8.442878470725198 1.7103717991621532 0 0 0
1392 464 2 0.41 3.019382683187758 15.27363565443903 2.8499947546942668 0 0 0
2351 784 2 0.41 7.815145540218994 0.4395915217463271 9.377568505134109 0 1 0
2710 904 1 -0.82 7.922956696979722 13.68644433523676 5.967554893900701 0 0 0
2711 904 2 0.41 7.489610237181791 14.075947104222694 5.159409773528785 0 0 0
1390 464 1 -0.82 2.3743353759307966 14.602380386635513 3.087806416505499 0 0 0
1391 464 2 0.41 1.6870174188771814 15.212684833383552 3.5240385796338547 0 0 0
4923 1641 2 0.41 1.2807076749422603 13.081313332303711 5.768841078432985 0 0 0
4922 1641 2 0.41 2.1054514341189945 14.31844138357114 6.162551520295031 0 0 0
4921 1641 1 -0.82 1.1730036812431939 14.046929369407321 5.983335017495016 0 0 0
2537 846 2 0.41 6.823668064318436 13.550815509715942 7.443834121876936 0 0 0
8705 2902 2 0.41 7.156627695112892 15.429984583808496 3.5917457857359785 0 0 1
251 84 2 0.41 2.289006398202886 16.73068885504654 7.238308910465676 0 0 0
2538 846 2 0.41 6.5291952603203445 12.166034377572446 8.075372344915971 0 0 0
2518 840 1 -0.82 0.8356924270924201 8.978767134464844 5.8450629530997755 1 0 0
8529 2843 2 0.41 11.174700549300686 0.9166986024406047 22.180288902442644 0 0 0
11101 3701 1 -0.82 0.7699678665253342 12.44571100398625 1.9779544888893894 0 0 1
11050 3684 1 -0.82 6.977922434093149 11.382733676905548 1.6784007168681132 0 0 1
5008 1670 1 -0.82 30.857440061855115 4.514041050275332 13.039302621586112 0 0 0
1260 420 2 0.41 1.4463166959085612 9.498154914325996 31.02403998116902 1 0 -1
2769 923 2 0.41 1.3356376636403275 14.060740293128756 8.333552233697676 0 0 0
10929 3643 2 0.41 3.2550793852489317 10.798434955399626 0.7272003257018357 0 0 1
311 104 2 0.41 4.165235887491644 17.823709301654144 30.252528311309632 0 0 -1
2418 806 2 0.41 11.970062896822789 8.371405090569864 2.376601357664291 0 0 0
1336 446 1 -0.82 12.484644360511597 7.342737833901605 6.595862411524365 0 0 0
5104 1702 1 -0.82 8.614418772301393 11.145869200024974 6.09060171098255 0 0 0
5106 1702 2 0.41 8.982618328766936 11.836212795025556 5.6165056193493506 0 0 0
185 62 2 0.41 8.223246573754196 9.21733723938967 5.885956644943669 0 0 0
11052 3684 2 0.41 7.64923723072806 12.06535193952818 1.7952009890356844 0 0 1
2712 904 2 0.41 8.804221007754466 14.076035361569748 5.790782149869968 0 0 0
10931 3644 2 0.41 10.170741275894704 12.719931674923316 2.6033725363189646 0 0 1
186 62 2 0.41 8.877025771323426 9.003335848665781 4.6250232481008435 0 0 0
1634 545 2 0.41 13.929547772393569 10.034100864047534 1.5524496732952628 0 0 0
184 62 1 -0.82 8.23627105544117 8.570840675064167 5.206241796899014 0 0 0
1271 424 2 0.41 13.018263629665498 10.993206642570863 5.811053428172631 0 0 0
10930 3644 1 -0.82 10.505985364179358 11.99587377611784 2.0444057646268248 0 0 1
2598 866 2 0.41 11.037300851544806 12.986020922681043 5.146082702268231 0 0 0
2596 866 1 -0.82 10.274612281929329 13.357441226552726 4.682467805368291 0 0 0
2597 866 2 0.41 10.672536463414446 14.200621087953087 4.499331282028865 0 0 0
1270 424 1 -0.82 12.500055491205146 10.197898122273088 5.808273976073412 0 0 0
1272 424 2 0.41 13.042627052193216 9.63430377672288 6.278024866402059 0 0 0
1457 486 2 0.41 13.198375405500066 15.00230352066623 4.163892979962586 0 0 0
10932 3644 2 0.41 11.357078415994334 11.789449888509916 2.422637741085469 0 0 1
3858 1286 2 0.41 9.84239177854548 8.659754187672899 2.050988235574504 0 0 0
3856 1286 1 -0.82 9.41335394047187 9.224706226652378 2.7308300490595663 0 0 0
11111 3704 2 0.41 11.680725823343433 14.020474285001958 30.583236406129217 0 0 0
3857 1286 2 0.41 9.200600990030242 10.056868951893781 2.290221910797236 0 0 0
11110 3704 1 -0.82 10.755898366308747 13.968578195385456 30.26043156995285 0 0 0
1633 545 1 -0.82 14.497096872073795 10.036516670784742 2.335790484045461 0 0 0
2588 863 2 0.41 9.692165903490176 10.264008129623196 7.277403947554451 0 0 0
2587 863 1 -0.82 10.421422450929885 9.934183225218483 7.857868468588074 0 0 0
3801 1267 2 0.41 13.507650830717747 13.687689143260176 5.804188154713295 0 0 0
2589 863 2 0.41 11.076521571934256 9.699472701406648 7.216074419322812 0 0 0
1694 565 2 0.41 14.21674486671871 16.292131614458487 7.228647575098772 0 0 0
1458 486 2 0.41 11.887604417997764 15.574838777005741 3.672296466147345 0 0 0
11112 3704 2 0.41 10.452042762094907 13.35941500956117 30.995192732394145 0 0 0
1635 545 2 0.41 14.991420060008135 10.87583538103833 2.192849407203237 0 0 0
2773 925 1 -0.82 14.83002830116405 14.49383447975225 6.740086646008214 0 0 0
3802 1268 1 -0.82 15.154141210924644 10.25114355382962 6.728796554226893 0 0 0
3800 1267 2 0.41 13.46856563115718 13.040669671270075 4.462156531706806 0 0 0
3799 1267 1 -0.82 12.887097087225476 13.368982687597258 5.120622534509157 0 0 0
2774 925 2 0.41 15.129888221315367 14.261308227404372 7.681200486972098 0 0 0
3803 1268 2 0.41 15.143302412008381 9.34149656509224 6.495685722141275 0 0 0
70 24 1 -0.82 15.767304270652433 12.425977768250519 2.502568643744744 0 0 0
370 124 1 -0.82 13.160814698433072 13.959896809443377 0.09181563816256783 0 0 0
2775 925 2 0.41 15.650918229206813 14.445360154454487 6.2659935123951485 0 0 0
1456 486 1 -0.82 12.847957987552904 15.469876319936045 3.3410965600327973 0 0 0
11240 3747 2 0.41 14.901246366849527 17.523817701882262 2.929414363760456 0 0 1
372 124 2 0.41 13.707402755869836 14.267069741328381 0.8693935379652816 0 0 0
2297 766 2 0.41 15.841616254950537 7.253246329374103 1.114358421830909 0 1 0
71 24 2 0.41 16.015365598198407 13.296117863506705 2.1423519907593342 0 0 0
72 24 2 0.41 16.19986050895489 12.509769703934317 3.4044818667370227 0 0 0
1513 505 1 -0.82 16.550387095057392 12.386097052655344 5.171007358812727 0 0 0
1514 505 2 0.41 15.865288321499115 11.754700394409523 5.2449849480288115 0 0 0
11048 3683 2 0.41 9.651084631744261 15.304341365447522 30.05304245118372 0 0 0
3804 1268 2 0.41 15.838612548349387 10.274128272300459 7.402369671879428 0 0 0
261 87 2 0.41 17.102346901173078 8.845849472148199 5.396356681585058 0 0 0
11055 3685 2 0.41 18.36469993522616 14.590833776017718 6.116458401523661 0 0 1
1518 506 2 0.41 23.541211550838707 11.623943753229153 1.4370408834160682 0 0 0
1516 506 1 -0.82 24.063689457729623 10.912427153027128 1.857191467270418 0 0 0
1459 487 1 -0.82 18.735150759875733 9.329360348769463 1.7082126737678769 0 0 0
1460 487 2 0.41 17.976637989066344 9.533156970792128 2.218146425816813 0 0 0
1461 487 2 0.41 19.341528376344584 10.071531018934742 1.8929345918736593 0 0 0
259 87 1 -0.82 16.51640496733585 8.151094893564805 5.637429134599142 0 0 0
1515 505 2 0.41 17.234111759313738 11.748275518233008 5.474168067733172 0 0 0
263 88 2 0.41 19.50783852186534 12.374650422876076 1.391951848811949 0 0 0
2779 927 1 -0.82 19.07755083627164 13.933479195366909 4.638689551205807 0 0 0
2781 927 2 0.41 18.220277500369757 13.514649173324585 4.520561743450918 0 0 0
11065 3689 1 -0.82 21.292600488283053 9.593345140783654 5.538385762844281 0 0 1
11066 3689 2 0.41 21.778395935932185 9.24587225492543 6.298035340929282 0 0 1
3807 1269 2 0.41 19.431783887981563 15.7399313972445 1.4448109210696887 0 0 0
2780 927 2 0.41 19.712656899897606 13.2174200360727 4.45651271280574 0 0 0
262 88 1 -0.82 19.72115558584663 11.771024734348746 2.1829674872765548 0 0 0
3805 1269 1 -0.82 19.823110420296953 16.261451983605518 2.177812132884187 0 0 0
264 88 2 0.41 20.616756094440742 12.145958674060212 2.4946081659357064 0 0 0
6312 2104 2 0.41 19.45198053626062 9.798516808097869 5.272620857810888 0 0 0
6310 2104 1 -0.82 18.525084490266835 10.13251489589951 5.324992776018167 0 0 0
6311 2104 2 0.41 18.619556869912213 10.571309947067132 6.189428446734762 0 0 0
11067 3689 2 0.41 21.554023262339786 8.976027769785587 4.857244869098454 0 0 1
1465 489 1 -0.82 21.529121253860225 12.138624771926308 5.127155781894895 0 0 0
1466 489 2 0.41 21.70490930772481 12.515144800769027 6.0148988082310195 0 0 0
1719 573 2 0.41 22.394820118624754 14.054925131095313 1.753961779902913 0 0 0
1467 489 2 0.41 21.359491954996194 11.202093483583523 5.370657982460466 0 0 0
1717 573 1 -0.82 22.542385138448854 13.265337909558854 1.2681115146083521 0 0 0
1535 512 2 0.41 18.659069941588566 7.59203594711371 1.3304729628896261 0 0 0
319 107 1 -0.82 18.884722948307996 14.204874259204741 0.514109351065062 0 0 0
321 107 2 0.41 19.135343284692635 14.686127554395656 30.786525998701517 0 0 -1
320 107 2 0.41 17.92971811070306 14.492629165272133 0.6344135342202538 0 0 0
9976 3326 1 -0.82 15.990730526099286 15.0782738484837 0.6762348298714729 0 0 1
383 128 2 0.41 23.007720369319525 12.301323182330176 4.362992879606039 0 0 0
1718 573 2 0.41 23.321509078824164 13.454661123372247 0.7686287061129069 0 0 0
11053 3685 1 -0.82 17.82800483473859 14.999851823837588 6.814786369138506 0 0 1
9977 3326 2 0.41 15.523587463422738 15.790251742219882 1.1860061056339917 0 0 1
4041 1347 2 0.41 20.197597786211436 15.356043646268557 4.999929376522964 0 0 0
9978 3326 2 0.41 15.708780773908849 15.251853040982532 30.795381223595985 0 0 0
3871 1291 1 -0.82 26.313830901400145 9.246368676938268 4.5830988692575065 0 0 0
11123 3708 2 0.41 24.82856256190982 8.536164242112159 3.5813908125452336 0 0 1
11122 3708 1 -0.82 24.32621067554001 8.198644255360348 2.8216075629640374 0 0 1
3750 1250 2 0.41 29.12413895426292 9.130686308616518 5.95212350300055 0 0 0
153 51 2 0.41 30.119986525315753 8.544163423408225 1.0911197268800996 0 0 0
1464 488 2 0.41 26.500775574730632 8.754933508416503 0.6983604746605936 0 0 0
1463 488 2 0.41 26.66860367871959 8.214406996062058 2.184208196278382 0 0 0
1462 488 1 -0.82 27.172228039822905 8.316551213046509 1.3362600508991516 0 0 0
3872 1291 2 0.41 27.185596176185953 9.483031080135508 4.345650436127287 0 0 0
3873 1291 2 0.41 26.013946851843095 9.934000089766194 5.216714926994997 0 0 0
11124 3708 2 0.41 24.260060680985813 8.992253826602408 2.2351151435673815 0 0 1
3749 1250 2 0.41 29.24840682795055 10.46260391944807 6.628302257985717 0 0 0
1517 506 2 0.41 24.71165361160139 10.76653119741565 1.1682907731975434 0 0 0
382 128 1 -0.82 23.938572077798014 12.434416389028867 4.099500851933041 0 0 0
393 131 2 0.41 29.788611784970925 10.641820588908601 4.516737322547227 0 0 0
384 128 2 0.41 24.064424086460615 11.70275858584374 3.419430918069917 0 0 0
3748 1250 1 -0.82 28.707854790317555 9.686110146330378 6.6614136153372385 0 0 0
1529 510 2 0.41 26.768499826174846 13.166616518052184 3.8756238927515017 0 0 0
1528 510 1 -0.82 26.175237786266667 13.627609216244572 3.195579039287255 0 0 0
391 131 1 -0.82 29.09481873921712 10.226539892350832 3.969531871487993 0 0 0
328 110 1 -0.82 27.62920209591267 12.923143395132913 5.2080900100694665 0 0 0
1530 510 2 0.41 25.375914565138533 13.071999526341646 3.1939927746925347 0 0 0
330 110 2 0.41 28.442948911721285 13.039188962793762 5.599735409791016 0 0 0
9745 3249 1 -0.82 25.385305780859454 10.185299778829366 30.853134349078932 0 0 0
271 91 1 -0.82 28.031389753870208 14.115078339772401 1.2683268225466149 0 0 0
329 110 2 0.41 27.386357687203066 12.076632230855346 5.68000509386821 0 0 0
2853 951 2 0.41 24.616142593345778 11.471456219304613 5.534479236541039 0 0 0
392 131 2 0.41 29.573406203804524 9.81215825897287 3.255787820463012 0 0 0
2851 951 1 -0.82 25.242490194441668 11.036744701209553 6.112828055954349 0 0 0
2852 951 2 0.41 25.243631870367867 11.653010742760456 6.897997426409881 0 0 0
152 51 2 0.41 28.78678909308123 9.08959530300671 1.3684046168757955 0 0 0
2787 929 2 0.41 25.43105975336505 16.46765608027653 6.149526980191521 0 0 0
3931 1311 1 -0.82 25.55625226641377 13.148484984269375 7.654874395903546 0 0 0
206 69 2 0.41 29.57606870494068 11.20517837806268 0.8325504281813463 0 0 0
272 91 2 0.41 27.41316093637544 13.742746717075237 1.854499300156025 0 0 0
3933 1311 2 0.41 25.188755284724323 13.922147401960876 7.172398354791786 0 0 0
3932 1311 2 0.41 26.419377157743455 13.444315661798418 7.9649555375008685 0 0 0
151 51 1 -0.82 29.711611732739364 9.349883756224884 1.3838633426506997 0 0 0
273 91 2 0.41 28.49920476801758 13.403268797962001 0.7633077594272571 0 0 0
1767 589 2 0.41 28.202133514828933 16.112380675744408 0.9169716086774939 0 0 0
2785 929 1 -0.82 25.27577698335701 15.538055005194957 6.228964123283791 0 0 0
5186 1729 2 0.41 28.422765505795887 14.548033717393583 5.180939549618673 0 0 0
205 69 1 -0.82 29.79567999846275 12.005091957655123 0.3158320222365481 0 0 0
625 209 1 -0.82 28.75998633315321 28.099446041560306 27.922698581433146 0 0 -1
301 101 1 -0.82 1.4046975322866386 17.548271138032913 1.1303187335892932 0 0 0
8704 2902 1 -0.82 7.803016764590482 16.078532146071478 3.225945253744551 0 0 1
252 84 2 0.41 3.711019387101275 16.341622425475748 7.373048416249066 0 0 0
8706 2902 2 0.41 7.157910430293253 16.871908420421473 3.144497034302889 0 0 1