LAMMPS data file. msi2lmp v3.9.8 / 06 Oct 2016 / CGCMM for diisopropyl_ether

     21 atoms
     20 bonds
     37 angles
     42 dihedrals
     24 impropers

   4 atom types
   4 bond types
   7 angle types
   5 dihedral types
   5 improper types

    -4.777806712     1.713136147 xlo xhi
    -2.649941796     2.995282369 ylo yhi
    -1.121652567     4.742884940 zlo zhi

Masses

   1  12.011150 # c4
   2  12.011150 # c43o
   3  15.999400 # o2e
   4   1.007970 # h1

Pair Coeffs # lj/class2/coul/long

   1   0.0620000000   3.8540000000 # c4
   2   0.0498000000   3.6700000000 # c43o
   3   0.1200000000   3.3000000000 # o2e
   4   0.0230000000   2.8780000000 # h1

Bond Coeffs # class2

   1     1.5300   299.6700  -501.7700   679.8100 # c4-c43o
   2     1.1010   345.0000  -691.8900   844.6000 # c4-h1
   3     1.4200   400.3954  -835.1951  1313.0142 # c43o-o2e
   4     1.1010   345.0000  -691.8900   844.6000 # c43o-h1

Angle Coeffs # class2

   1   110.7700    41.4530   -10.6040     5.1290 # c43o-c4-h1
   2   107.6600    39.6410   -12.9210    -2.4318 # h1-c4-h1
   3   112.6700    39.5160    -7.4430    -9.5583 # c4-c43o-c4
   4   111.2700    54.5381    -8.3642   -13.0838 # c4-c43o-o2e
   5   110.7700    41.4530   -10.6040     5.1290 # c4-c43o-h1
   6   108.7280    58.5446   -10.8088   -12.4006 # o2e-c43o-h1
   7   104.5000    35.7454   -10.0067    -6.2729 # c43o-o2e-c43o

Dihedral Coeffs # class2

   1     0.0000     0.0000     0.0316     0.0000    -0.1681     0.0000# h1-c4-c43o-c4
   2    -0.1435     0.0000     0.2530     0.0000    -0.0905     0.0000# h1-c4-c43o-o2e
   3    -0.1432     0.0000     0.0617     0.0000    -0.1530     0.0000# h1-c4-c43o-h1
   4    -0.4000     0.0000    -0.4028     0.0000    -0.2450     0.0000# c4-c43o-o2e-c43o
   5     0.5302     0.0000     0.0000     0.0000    -0.3966     0.0000# h1-c43o-o2e-c43o

Improper Coeffs # class2

  1     0.0000     0.0000 
  2     0.0000     0.0000 
  3     0.0000     0.0000 
  4     0.0000     0.0000 
  5     0.0000     0.0000 

BondBond Coeffs

  1     3.3872     1.5300     1.1010 
  2     5.3316     1.1010     1.1010 
  3     0.0000     1.5300     1.5300 
  4    11.4318     1.5300     1.4200 
  5     3.3872     1.5300     1.1010 
  6    23.1979     1.4200     1.1010 
  7    -7.1131     1.4200     1.4200 

BondAngle Coeffs

  1    20.7540    11.4210     1.5300     1.1010 
  2    18.1030    18.1030     1.1010     1.1010 
  3     8.0160     8.0160     1.5300     1.5300 
  4     2.6868    20.4033     1.5300     1.4200 
  5    20.7540    11.4210     1.5300     1.1010 
  6    55.3270     4.6189     1.4200     1.1010 
  7    -2.8112    -2.8112     1.4200     1.4200 

AngleAngle Coeffs

  1     0.2738    -0.4825     0.2738   110.7700   107.6600   110.7700 
  2    -0.3157    -0.3157    -0.3157   107.6600   107.6600   107.6600 
  3    -0.8330    -0.8330    -3.5744   112.6700   111.2700   111.2700 
  4    -1.3199    -1.3199     0.1184   112.6700   110.7700   110.7700 
  5     0.1689     2.5926     3.9177   111.2700   108.7280   110.7700 

AngleAngleTorsion Coeffs

  1   -16.1640   110.7700   112.6700 
  2   -20.2006   110.7700   111.2700 
  3   -12.5640   110.7700   110.7700 
  4   -19.0059   111.2700   104.5000 
  5   -16.4438   108.7280   104.5000 

EndBondTorsion Coeffs

1     0.0814     0.0591     0.2219     0.2486     0.2422    -0.0925     1.1010     1.5300 
2     0.9681     0.9551     0.0436     0.5903     0.6669     0.8584     1.1010     1.4200 
3     0.2130     0.3120     0.0777     0.2130     0.3120     0.0777     1.1010     1.1010 
4    -0.2456     1.0517    -0.7795     0.4741     1.2635     0.5576     1.5300     1.4200 
5    -0.6054     1.3339     0.9648    -0.1620     0.1564    -1.1408     1.1010     1.4200 

MiddleBondTorsion Coeffs

  1   -14.8790    -3.6581    -0.3138     1.5300 
  2   -16.7975    -1.2296    -0.2750     1.5300 
  3   -14.2610    -0.5322    -0.4864     1.5300 
  4    -5.9288    -2.7007    -0.3175     1.4200 
  5    -6.8007    -4.6546    -1.4101     1.4200 

BondBond13 Coeffs

  1     0.0000     1.1010     1.5300 
  2     0.0000     1.1010     1.4200 
  3     0.0000     1.1010     1.1010 
  4     0.0000     1.5300     1.4200 
  5     0.0000     1.1010     1.4200 

AngleTorsion Coeffs

  1     0.3113     0.4516    -0.1988    -0.2454     0.0000    -0.1136   110.7700   112.6700 
  2     2.3668     2.4920    -1.0122    -0.1892     0.4918     0.7273   110.7700   111.2700 
  3    -0.8085     0.5569    -0.2466    -0.8085     0.5569    -0.2466   110.7700   110.7700 
  4    -2.7466     1.4877    -0.8955     0.5676     0.9450     0.0703   111.2700   104.5000 
  5    -1.8234     1.6393     0.5144    -0.7777     0.4340    -0.6653   108.7280   104.5000 

Atoms # full

      1      1   1 -0.159000    -3.693430518    -0.050735840     0.604642918   0   0   0 # c4
      2      1   2  0.107000    -2.249529588     0.442812789     0.650769007   0   0   0 # c43o
      3      1   1 -0.159000    -2.177290496     1.944772807     0.365430847   0   0   0 # c4
      4      1   3 -0.320000    -1.785705878     0.129534691     1.969544862   0   0   0 # o2e
      5      1   2  0.107000    -0.371941579     0.010678472     2.167863585   0   0   0 # c43o
      6      1   1 -0.159000    -0.152830180     0.262408836     3.657394459   0   0   0 # c4
      7      1   1 -0.159000     0.143030551    -1.371730758     1.761005663   0   0   0 # c4
      8      1   4  0.053000    -3.731553653    -1.133372457     0.806300190   0   0   0 # h1
      9      1   4  0.053000    -4.173935085     0.137294508    -0.367017098   0   0   0 # h1
     10      1   4  0.053000    -4.277806712     0.457450119     1.388402538   0   0   0 # h1
     11      1   4  0.053000    -1.661024933    -0.099702896    -0.110840891   0   0   0 # h1
     12      1   4  0.053000    -2.745419510     2.495282369     1.131889538   0   0   0 # h1
     13      1   4  0.053000    -2.605564259     2.178545605    -0.621652567   0   0   0 # h1
     14      1   4  0.053000    -1.139799570     2.312527317     0.384577319   0   0   0 # h1
     15      1   4  0.053000     0.169604450     0.782719554     1.592523420   0   0   0 # h1
     16      1   4  0.053000    -0.539449070     1.256779016     3.931616531   0   0   0 # h1
     17      1   4  0.053000     0.907932266     0.213290984     3.945213937   0   0   0 # h1
     18      1   4  0.053000    -0.710225854    -0.486378840     4.242884940   0   0   0 # h1
     19      1   4  0.053000     0.009473940    -1.551374551     0.683432711   0   0   0 # h1
     20      1   4  0.053000    -0.414071163    -2.149941796     2.305349779   0   0   0 # h1
     21      1   4  0.053000     1.213136147    -1.480018021     1.996245859   0   0   0 # h1

Bonds

     1   1      1      2
     2   2      1      8
     3   2      1      9
     4   2      1     10
     5   1      3      2
     6   3      2      4
     7   4      2     11
     8   2      3     12
     9   2      3     13
    10   2      3     14
    11   3      5      4
    12   1      6      5
    13   1      7      5
    14   4      5     15
    15   2      6     16
    16   2      6     17
    17   2      6     18
    18   2      7     19
    19   2      7     20
    20   2      7     21

Angles

     1   1      2      1      8
     2   1      2      1      9
     3   1      2      1     10
     4   2      8      1      9
     5   2      8      1     10
     6   2      9      1     10
     7   3      1      2      3
     8   4      1      2      4
     9   5      1      2     11
    10   4      3      2      4
    11   5      3      2     11
    12   6      4      2     11
    13   1      2      3     12
    14   1      2      3     13
    15   1      2      3     14
    16   2     12      3     13
    17   2     12      3     14
    18   2     13      3     14
    19   7      2      4      5
    20   4      6      5      4
    21   4      7      5      4
    22   6      4      5     15
    23   3      6      5      7
    24   5      6      5     15
    25   5      7      5     15
    26   1      5      6     16
    27   1      5      6     17
    28   1      5      6     18
    29   2     16      6     17
    30   2     16      6     18
    31   2     17      6     18
    32   1      5      7     19
    33   1      5      7     20
    34   1      5      7     21
    35   2     19      7     20
    36   2     19      7     21
    37   2     20      7     21

Dihedrals

     1   1      8      1      2      3
     2   2      8      1      2      4
     3   3      8      1      2     11
     4   1      9      1      2      3
     5   2      9      1      2      4
     6   3      9      1      2     11
     7   1     10      1      2      3
     8   2     10      1      2      4
     9   3     10      1      2     11
    10   1     12      3      2      1
    11   1     13      3      2      1
    12   1     14      3      2      1
    13   2     12      3      2      4
    14   2     13      3      2      4
    15   2     14      3      2      4
    16   3     12      3      2     11
    17   3     13      3      2     11
    18   3     14      3      2     11
    19   4      1      2      4      5
    20   4      3      2      4      5
    21   5     11      2      4      5
    22   4      6      5      4      2
    23   4      7      5      4      2
    24   5     15      5      4      2
    25   2     16      6      5      4
    26   2     17      6      5      4
    27   2     18      6      5      4
    28   1     16      6      5      7
    29   1     17      6      5      7
    30   1     18      6      5      7
    31   3     16      6      5     15
    32   3     17      6      5     15
    33   3     18      6      5     15
    34   2     19      7      5      4
    35   2     20      7      5      4
    36   2     21      7      5      4
    37   1     19      7      5      6
    38   1     20      7      5      6
    39   1     21      7      5      6
    40   3     19      7      5     15
    41   3     20      7      5     15
    42   3     21      7      5     15

Impropers

     1   1      2      1      8      9 
     2   1      2      1      8     10 
     3   1      2      1      9     10 
     4   2      8      1      9     10 
     5   3      1      2      3      4 
     6   4      1      2      3     11 
     7   5      1      2      4     11 
     8   5      3      2      4     11 
     9   1      2      3     12     13 
    10   1      2      3     12     14 
    11   1      2      3     13     14 
    12   2     12      3     13     14 
    13   3      6      5      7      4 
    14   5      6      5      4     15 
    15   5      7      5      4     15 
    16   4      6      5      7     15 
    17   1      5      6     16     17 
    18   1      5      6     16     18 
    19   1      5      6     17     18 
    20   2     16      6     17     18 
    21   1      5      7     19     20 
    22   1      5      7     19     21 
    23   1      5      7     20     21 
    24   2     19      7     20     21 

