LAMMPS data file for published compass water model (no cross-terms) 

3 atoms
2 bonds
1 angles

2 atom types
1 bond types
1 angle types

0.000000 1.424000 xlo xhi
0.000000 0.776000 ylo yhi
0.000000 0.397000 zlo zhi

Masses

   1   15.999000  # O
   2    1.008000  # H

Pair Coeffs
 
    1    0.080000     3.840000 # o2*
    2    0.008000     1.087000 # h1o

Bond Coeffs

    1    0.957200  552.000000  -1276.000000  1787.000000   # O-H

Angle Coeffs

    1  104.520000  46.650000  -11.700000  -8.790000   # H-O-H

BondBond Coeffs
 
    1    0.000000  0.957200  0.957200 
 
BondAngle Coeffs
 
    1    0.000000  0.000000  0.957200  0.957200 

Atoms

      1       1    1  -0.820000   0.551   0.001  0.246   # O
      2       1    2   0.410000   0.010   0.766  0.387  
      3       1    2   0.410000   1.414   0.321  0.031

Bonds

    1           1          1          2
    2           1          1          3


Angles
 
    1          1          2          1          3
